Program Version,EnergyPlus, Version 8.9.0-eba93e8e1b, YMD=2018.09.18 16:54
1,5,Environment Title[],Latitude[deg],Longitude[deg],Time Zone[],Elevation[m]
2,8,Day of Simulation[],Month[],Day of Month[],DST Indicator[1=yes 0=no],Hour[],StartMinute[],EndMinute[],DayType
3,5,Cumulative Day of Simulation[],Month[],Day of Month[],DST Indicator[1=yes 0=no],DayType  ! When Daily Report Variables Requested
4,2,Cumulative Days of Simulation[],Month[]  ! When Monthly Report Variables Requested
5,1,Cumulative Days of Simulation[] ! When Run Period Report Variables Requested
6,1,Calendar Year of Simulation[] ! When Annual Report Variables Requested
7,9,Environment,Site Outdoor Air Drybulb Temperature [C] !Monthly [Value,Min,Day,Hour,Minute,Max,Day,Hour,Minute]
8,1,Environment,Site Outdoor Air Wetbulb Temperature [C] !TimeStep
441,1,SP-ATTIC SYS-0 FLR-2 SCH-- UNDEFINED - HPLCMT-CORE ZN,Zone Air Temperature [C] !Hourly
442,7,SP-ATTIC SYS-0 FLR-2 SCH-- UNDEFINED - HPLCMT-CORE ZN,Zone Air Relative Humidity [%] !Daily [Value,Min,Hour,Minute,Max,Hour,Minute]
481,1,SP-DINING SYS-3 FLR-1 SCH-B HPLCMT-SOUTH ZN,Zone Air Temperature [C] !Hourly
482,7,SP-DINING SYS-3 FLR-1 SCH-B HPLCMT-SOUTH ZN,Zone Air Relative Humidity [%] !Daily [Value,Min,Hour,Minute,Max,Hour,Minute]
521,1,SP-KITCHEN SYS-3 FLR-1 SCH-B HPLCMT-NORTH ZN,Zone Air Temperature [C] !Hourly
522,7,SP-KITCHEN SYS-3 FLR-1 SCH-B HPLCMT-NORTH ZN,Zone Air Relative Humidity [%] !Daily [Value,Min,Hour,Minute,Max,Hour,Minute]
10,1,Electricity:Facility [J] !TimeStep
207,1,Gas:Facility [J] !TimeStep
End of Data Dictionary
1,VANCOUVER INTL AP ANN CLG .4% CONDNS DB=>MWB,  49.20,-123.18,  -8.00,   4.30
2,1, 7,21, 0, 1, 0.00,10.00,SummerDesignDay
8,16.352199953652215
10,5886754.371386799
207,1722843.9691153453
2,1, 7,21, 0, 1,10.00,20.00,SummerDesignDay
8,16.3252576442975
10,5873215.133231116
207,1455890.681334521
2,1, 7,21, 0, 1,20.00,30.00,SummerDesignDay
8,16.2982938306074
10,5867874.963485552
207,2676385.0084122207
2,1, 7,21, 0, 1,30.00,40.00,SummerDesignDay
8,16.271298954341999
10,5862324.227241383
207,2798842.0192595648
2,1, 7,21, 0, 1,40.00,50.00,SummerDesignDay
8,16.244276700157607
10,5856707.10133945
207,2800225.552280638
2,1, 7,21, 0, 1,50.00,60.00,SummerDesignDay
8,16.217228272321866
10,5851238.911842007
207,2801650.1979876819
2,1, 7,21, 0, 1, 0.00,60.00,SummerDesignDay
441,25.22204772214762
481,23.51804648714901
521,23.998477516637917
2,1, 7,21, 0, 2, 0.00,10.00,SummerDesignDay
8,16.199184445315237
10,3699612.391431661
207,616612.9748869184
2,1, 7,21, 0, 2,10.00,20.00,SummerDesignDay
8,16.181123823551326
10,3705164.52502747
207,2014111.6841905278
2,1, 7,21, 0, 2,20.00,30.00,SummerDesignDay
8,16.163056857826836
10,3699612.391431661
207,2615090.2315220308
2,1, 7,21, 0, 2,30.00,40.00,SummerDesignDay
8,16.144971888810827
10,3699612.391431661
207,2618301.420894319
2,1, 7,21, 0, 2,40.00,50.00,SummerDesignDay
8,16.12688104636919
10,3699612.391431661
207,732495.1185920772
2,1, 7,21, 0, 2,50.00,60.00,SummerDesignDay
8,16.108773026303486
10,3699612.391431661
207,2045385.2804285752
2,1, 7,21, 0, 2, 0.00,60.00,SummerDesignDay
441,25.035621654984565
481,22.86254406790103
521,25.04995057020726
2,1, 7,21, 0, 3, 0.00,10.00,SummerDesignDay
8,16.095187997840726
10,1980398.0510262603
207,12000.0
2,1, 7,21, 0, 3,10.00,20.00,SummerDesignDay
8,16.08159647937563
10,1980398.0510262603
207,1993807.6120383568
2,1, 7,21, 0, 3,20.00,30.00,SummerDesignDay
8,16.067992103020477
10,1980398.0510262603
207,12000.0
2,1, 7,21, 0, 3,30.00,40.00,SummerDesignDay
8,16.054387489767213
10,1980398.0510262603
207,12000.0
2,1, 7,21, 0, 3,40.00,50.00,SummerDesignDay
8,16.040775235496488
10,1980398.0510262603
207,12000.0
2,1, 7,21, 0, 3,50.00,60.00,SummerDesignDay
8,16.027151463515208
10,1980398.0510262603
207,12000.0
2,1, 7,21, 0, 3, 0.00,60.00,SummerDesignDay
441,24.83761637726143
481,22.229347191307175
521,24.463190822222506
2,1, 7,21, 0, 4, 0.00,10.00,SummerDesignDay
8,16.013526309671386
10,1980398.0510262603
207,12000.0
2,1, 7,21, 0, 4,10.00,20.00,SummerDesignDay
8,15.999888590638458
10,1980398.0510262603
207,12000.0
2,1, 7,21, 0, 4,20.00,30.00,SummerDesignDay
8,15.986249958378048
10,1980398.0510262603
207,1231292.2916341837
2,1, 7,21, 0, 4,30.00,40.00,SummerDesignDay
8,15.972604339068287
10,1980398.0510262603
207,979562.068852145
2,1, 7,21, 0, 4,40.00,50.00,SummerDesignDay
8,15.958946698244901
10,1980398.0510262603
207,12000.0
2,1, 7,21, 0, 4,50.00,60.00,SummerDesignDay
8,15.945287702730492
10,1980398.0510262603
207,12000.0
2,1, 7,21, 0, 4, 0.00,60.00,SummerDesignDay
441,24.587302287831205
481,21.851378580993854
521,23.94561697190672
2,1, 7,21, 0, 5, 0.00,10.00,SummerDesignDay
8,15.936177990809899
10,1980398.0510262603
207,12000.0
2,1, 7,21, 0, 5,10.00,20.00,SummerDesignDay
8,15.92705949178547
10,1980398.0510262603
207,12000.0
2,1, 7,21, 0, 5,20.00,30.00,SummerDesignDay
8,15.917943710706878
10,1980398.0510262603
207,12000.0
2,1, 7,21, 0, 5,30.00,40.00,SummerDesignDay
8,15.908825155859729
10,1980398.0510262603
207,12000.0
2,1, 7,21, 0, 5,40.00,50.00,SummerDesignDay
8,15.89970321878413
10,1980398.0510262603
207,2043300.3507471088
2,1, 7,21, 0, 5,50.00,60.00,SummerDesignDay
8,15.89058503181825
10,1980398.0510262603
207,12000.0
2,1, 7,21, 0, 5, 0.00,60.00,SummerDesignDay
441,24.358860868677639
481,21.634801364837199
521,23.699782906074135
2,1, 7,21, 0, 6, 0.00,10.00,SummerDesignDay
8,15.89970321878413
10,1980398.0510262603
207,12000.0
2,1, 7,21, 0, 6,10.00,20.00,SummerDesignDay
8,15.908825155859729
10,1980398.0510262603
207,12000.0
2,1, 7,21, 0, 6,20.00,30.00,SummerDesignDay
8,15.917943710706878
10,1980398.0510262603
207,12000.0
2,1, 7,21, 0, 6,30.00,40.00,SummerDesignDay
8,15.92705949178547
10,1980398.0510262603
207,12000.0
2,1, 7,21, 0, 6,40.00,50.00,SummerDesignDay
8,15.936177990809899
10,1980398.0510262603
207,12000.0
2,1, 7,21, 0, 6,50.00,60.00,SummerDesignDay
8,15.945287702730492
10,1980398.0510262603
207,27266.428462372194
2,1, 7,21, 0, 6, 0.00,60.00,SummerDesignDay
441,24.53809835349703
481,21.859864025442965
521,23.559563347118723
2,1, 7,21, 0, 7, 0.00,10.00,SummerDesignDay
8,15.977153459569559
10,1980398.0510262603
207,2017199.66374944
2,1, 7,21, 0, 7,10.00,20.00,SummerDesignDay
8,16.00898303120887
10,1980398.0510262603
207,12000.0
2,1, 7,21, 0, 7,20.00,30.00,SummerDesignDay
8,16.040775235496488
10,1980398.0510262603
207,12000.0
2,1, 7,21, 0, 7,30.00,40.00,SummerDesignDay
8,16.072525945973774
10,1980398.0510262603
207,12000.0
2,1, 7,21, 0, 7,40.00,50.00,SummerDesignDay
8,16.104245538982189
10,1980398.0510262603
207,12000.0
2,1, 7,21, 0, 7,50.00,60.00,SummerDesignDay
8,16.135928228205914
10,1980398.0510262603
207,12000.0
2,1, 7,21, 0, 7, 0.00,60.00,SummerDesignDay
441,24.90682411202469
481,22.31390398771717
521,23.57392558157557
2,1, 7,21, 0, 8, 0.00,10.00,SummerDesignDay
8,16.212718231329928
10,1980398.0510262603
207,12000.0
2,1, 7,21, 0, 8,10.00,20.00,SummerDesignDay
8,16.289295095914626
10,1980398.0510262603
207,2046507.2316718742
2,1, 7,21, 0, 8,20.00,30.00,SummerDesignDay
8,16.365658732225424
10,1980398.0510262603
207,12000.0
2,1, 7,21, 0, 8,30.00,40.00,SummerDesignDay
8,16.44181049723187
10,1980398.0510262603
207,12000.0
2,1, 7,21, 0, 8,40.00,50.00,SummerDesignDay
8,16.517756147764346
10,1980398.0510262603
207,12000.0
2,1, 7,21, 0, 8,50.00,60.00,SummerDesignDay
8,16.593486849767513
10,1980398.0510262603
207,12000.0
2,1, 7,21, 0, 8, 0.00,60.00,SummerDesignDay
441,25.495897491762265
481,22.934530746644783
521,23.784644510865659
2,1, 7,21, 0, 9, 0.00,10.00,SummerDesignDay
8,16.677878063199516
10,1980398.0510262603
207,12000.0
2,1, 7,21, 0, 9,10.00,20.00,SummerDesignDay
8,16.76200946235728
10,2021323.005612488
207,12000.0
2,1, 7,21, 0, 9,20.00,30.00,SummerDesignDay
8,16.845887031033866
10,2019509.5098335876
207,12000.0
2,1, 7,21, 0, 9,30.00,40.00,SummerDesignDay
8,16.929502190751337
10,2038100.7384325122
207,2034101.4209505809
2,1, 7,21, 0, 9,40.00,50.00,SummerDesignDay
8,17.012861351115086
10,2051587.5683314426
207,12000.0
2,1, 7,21, 0, 9,50.00,60.00,SummerDesignDay
8,17.09597057951627
10,2285008.7149999409
207,12000.0
2,1, 7,21, 0, 9, 0.00,60.00,SummerDesignDay
441,26.278408427559133
481,23.73210077075447
521,24.0006183390812
2,1, 7,21, 0,10, 0.00,10.00,SummerDesignDay
8,17.17011313897211
10,4421301.590442761
207,2869625.6466936699
2,1, 7,21, 0,10,10.00,20.00,SummerDesignDay
8,17.24405314489198
10,4709248.295322951
207,2893602.898568392
2,1, 7,21, 0,10,20.00,30.00,SummerDesignDay
8,17.317792342150307
10,4825421.736312296
207,2221011.7080652
2,1, 7,21, 0,10,30.00,40.00,SummerDesignDay
8,17.391330750865035
10,4932920.797746524
207,2216949.737737252
2,1, 7,21, 0,10,40.00,50.00,SummerDesignDay
8,17.464669750704549
10,5032865.36180207
207,2212440.3991070089
2,1, 7,21, 0,10,50.00,60.00,SummerDesignDay
8,17.537810589481837
10,5126260.178017641
207,2752976.27857286
2,1, 7,21, 0,10, 0.00,60.00,SummerDesignDay
441,27.113358903481769
481,23.999076115685967
521,23.99948162310399
2,1, 7,21, 0,11, 0.00,10.00,SummerDesignDay
8,17.60218312883583
10,6260604.139111087
207,3015331.671174012
2,1, 7,21, 0,11,10.00,20.00,SummerDesignDay
8,17.666401914182499
10,6349074.070194785
207,3015657.3485089198
2,1, 7,21, 0,11,20.00,30.00,SummerDesignDay
8,17.73046886665172
10,6424428.601343338
207,3016014.789834991
2,1, 7,21, 0,11,30.00,40.00,SummerDesignDay
8,17.794377337180749
10,6498422.60863391
207,3016372.660538116
2,1, 7,21, 0,11,40.00,50.00,SummerDesignDay
8,17.858140091722729
10,6569792.241535344
207,3016729.8245848186
2,1, 7,21, 0,11,50.00,60.00,SummerDesignDay
8,17.921751671476274
10,6641769.721940489
207,2287038.366174733
2,1, 7,21, 0,11, 0.00,60.00,SummerDesignDay
441,27.866458589696938
481,23.998873280634954
521,23.998966665820899
2,1, 7,21, 0,12, 0.00,10.00,SummerDesignDay
8,17.964074041059168
10,7854617.413320981
207,758416.3968752237
2,1, 7,21, 0,12,10.00,20.00,SummerDesignDay
8,18.00633512830953
10,7872670.476732648
207,2454751.8195532069
2,1, 7,21, 0,12,20.00,30.00,SummerDesignDay
8,18.048524057857607
10,7934381.616259827
207,1782560.7713696317
2,1, 7,21, 0,12,30.00,40.00,SummerDesignDay
8,18.090647246552004
10,7994481.893618359
207,854193.7363943551
2,1, 7,21, 0,12,40.00,50.00,SummerDesignDay
8,18.132703529720616
10,8055891.764041339
207,2455646.654363685
2,1, 7,21, 0,12,50.00,60.00,SummerDesignDay
8,18.17469964536842
10,8118942.663524963
207,1267949.6301224784
2,1, 7,21, 0,12, 0.00,60.00,SummerDesignDay
441,28.459948993644955
481,23.998635191490896
521,23.99864914171205
2,1, 7,21, 0,13, 0.00,10.00,SummerDesignDay
8,18.208245339828517
10,8368613.189706384
207,1472214.436187618
2,1, 7,21, 0,13,10.00,20.00,SummerDesignDay
8,18.241744233723979
10,8441117.779816192
207,2613865.7535215166
2,1, 7,21, 0,13,20.00,30.00,SummerDesignDay
8,18.2752069112248
10,8491476.40409613
207,2617326.3947036357
2,1, 7,21, 0,13,30.00,40.00,SummerDesignDay
8,18.30862693969058
10,8539301.730124589
207,1309548.3907097639
2,1, 7,21, 0,13,40.00,50.00,SummerDesignDay
8,18.342005526737105
10,8584535.452782873
207,1516996.2766728986
2,1, 7,21, 0,13,50.00,60.00,SummerDesignDay
8,18.375341817792614
10,8629480.397155537
207,2613788.1464909345
2,1, 7,21, 0,13, 0.00,60.00,SummerDesignDay
441,28.875093938680167
481,23.998158815453935
521,23.998475993852109
2,1, 7,21, 0,14, 0.00,10.00,SummerDesignDay
8,18.39615811087369
10,8616477.33340587
207,2780523.9974325119
2,1, 7,21, 0,14,10.00,20.00,SummerDesignDay
8,18.416957955881725
10,8665344.877859224
207,2706723.787708473
2,1, 7,21, 0,14,20.00,30.00,SummerDesignDay
8,18.43773680274513
10,8701064.181751026
207,1470106.9431318064
2,1, 7,21, 0,14,30.00,40.00,SummerDesignDay
8,18.458504433044504
10,8740051.285722984
207,1646510.5258910759
2,1, 7,21, 0,14,40.00,50.00,SummerDesignDay
8,18.479250383250578
10,8781737.879885732
207,2798187.4554121785
2,1, 7,21, 0,14,50.00,60.00,SummerDesignDay
8,18.499985692685468
10,8825177.204339277
207,2799152.6120371648
2,1, 7,21, 0,14, 0.00,60.00,SummerDesignDay
441,29.116650628123904
481,23.997812480666256
521,23.9982563484743
2,1, 7,21, 0,15, 0.00,10.00,SummerDesignDay
8,18.499985692685468
10,8719696.63503186
207,2800554.2906157427
2,1, 7,21, 0,15,10.00,20.00,SummerDesignDay
8,18.499985692685468
10,8744715.309744982
207,2646009.159269103
2,1, 7,21, 0,15,20.00,30.00,SummerDesignDay
8,18.499985692685468
10,8773237.62759753
207,1469379.452308397
2,1, 7,21, 0,15,30.00,40.00,SummerDesignDay
8,18.499985692685468
10,8801388.677777634
207,1709140.4200217
2,1, 7,21, 0,15,40.00,50.00,SummerDesignDay
8,18.499985692685468
10,8827694.89605025
207,2798209.0817673
2,1, 7,21, 0,15,50.00,60.00,SummerDesignDay
8,18.499985692685468
10,8851042.990077047
207,2799216.024068774
2,1, 7,21, 0,15, 0.00,60.00,SummerDesignDay
441,29.172149221497106
481,23.997993277243748
521,23.998366284296855
2,1, 7,21, 0,16, 0.00,10.00,SummerDesignDay
8,18.475102970177127
10,8714253.645562515
207,2490916.8806215079
2,1, 7,21, 0,16,10.00,20.00,SummerDesignDay
8,18.450201543271235
10,8672642.634938356
207,12000.0
2,1, 7,21, 0,16,20.00,30.00,SummerDesignDay
8,18.425271777286019
10,8664544.180940936
207,2454413.166146955
2,1, 7,21, 0,16,30.00,40.00,SummerDesignDay
8,18.40031825447926
10,8654070.28367739
207,2189799.14248828
2,1, 7,21, 0,16,40.00,50.00,SummerDesignDay
8,18.375341817792614
10,8641772.832796436
207,371685.3050164853
2,1, 7,21, 0,16,50.00,60.00,SummerDesignDay
8,18.350347174046595
10,8632805.564672644
207,2455041.6716684738
2,1, 7,21, 0,16, 0.00,60.00,SummerDesignDay
441,29.02441273275518
481,23.998592491158587
521,23.998750410175619
2,1, 7,21, 0,17, 0.00,10.00,SummerDesignDay
8,18.316978860635527
10,8612504.724084769
207,78131.32876657958
2,1, 7,21, 0,17,10.00,20.00,SummerDesignDay
8,18.2835693630182
10,8573654.063522265
207,2265650.9428256808
2,1, 7,21, 0,17,20.00,30.00,SummerDesignDay
8,18.250118050746214
10,8550960.056135865
207,978921.1567576077
2,1, 7,21, 0,17,30.00,40.00,SummerDesignDay
8,18.216624325548968
10,8524177.471219209
207,1522185.652752561
2,1, 7,21, 0,17,40.00,50.00,SummerDesignDay
8,18.183088861944893
10,8496822.456003678
207,1718828.6762909406
2,1, 7,21, 0,17,50.00,60.00,SummerDesignDay
8,18.149510843493635
10,8464817.768391282
207,766490.5443242391
2,1, 7,21, 0,17, 0.00,60.00,SummerDesignDay
441,28.67115109778524
481,23.99901975006353
521,23.999066454241754
2,1, 7,21, 0,18, 0.00,10.00,SummerDesignDay
8,18.10748062898272
10,8477420.441874369
207,2322745.8164756337
2,1, 7,21, 0,18,10.00,20.00,SummerDesignDay
8,18.065379091048376
10,8441103.106477742
207,12000.0
2,1, 7,21, 0,18,20.00,30.00,SummerDesignDay
8,18.023216461654344
10,8401864.740691865
207,2321221.349227779
2,1, 7,21, 0,18,30.00,40.00,SummerDesignDay
8,17.980987605947548
10,8356482.651778515
207,12000.0
2,1, 7,21, 0,18,40.00,50.00,SummerDesignDay
8,17.93869205826644
10,8308159.479032291
207,2319774.5863937039
2,1, 7,21, 0,18,50.00,60.00,SummerDesignDay
8,17.89632405402092
10,8253856.766007807
207,12000.0
2,1, 7,21, 0,18, 0.00,60.00,SummerDesignDay
441,28.137529487905565
481,23.99904476589538
521,23.999104395605316
2,1, 7,21, 0,19, 0.00,10.00,SummerDesignDay
8,17.832657261722244
10,8325022.633055649
207,2441302.0490428807
2,1, 7,21, 0,19,10.00,20.00,SummerDesignDay
8,17.768833985856515
10,8265133.515216481
207,1402830.9290851125
2,1, 7,21, 0,19,20.00,30.00,SummerDesignDay
8,17.704859478274899
10,8178512.527916362
207,1257543.8009306759
2,1, 7,21, 0,19,30.00,40.00,SummerDesignDay
8,17.640731707059819
10,8086865.250843382
207,2456277.640709386
2,1, 7,21, 0,19,40.00,50.00,SummerDesignDay
8,17.576451319157326
10,7986006.8377465079
207,864468.0527272226
2,1, 7,21, 0,19,50.00,60.00,SummerDesignDay
8,17.512016904905339
10,7877139.163910345
207,1769192.4682835399
2,1, 7,21, 0,19, 0.00,60.00,SummerDesignDay
441,27.45326299603704
481,23.99866919040962
521,23.99878696827159
2,1, 7,21, 0,20, 0.00,10.00,SummerDesignDay
8,17.464669750704549
10,7936093.833654414
207,2598126.005069646
2,1, 7,21, 0,20,10.00,20.00,SummerDesignDay
8,17.417239543286124
10,7854046.992611518
207,2276066.34599317
2,1, 7,21, 0,20,20.00,30.00,SummerDesignDay
8,17.369720602565694
10,7742334.534249467
207,461811.3210205798
2,1, 7,21, 0,20,30.00,40.00,SummerDesignDay
8,17.32212315858905
10,7620671.329881629
207,2613040.777249912
2,1, 7,21, 0,20,40.00,50.00,SummerDesignDay
8,17.27444149556641
10,7507496.3011550069
207,2615543.301754908
2,1, 7,21, 0,20,50.00,60.00,SummerDesignDay
8,17.22667133087272
10,7401486.537486712
207,2329963.856928302
2,1, 7,21, 0,20, 0.00,60.00,SummerDesignDay
441,26.824559797398434
481,23.99821558971998
521,23.998254075435239
2,1, 7,21, 0,21, 0.00,10.00,SummerDesignDay
8,17.187526559563478
10,7306083.423779936
207,2628151.691279747
2,1, 7,21, 0,21,10.00,20.00,SummerDesignDay
8,17.14832575016431
10,7294946.24770106
207,2778996.368342459
2,1, 7,21, 0,21,20.00,30.00,SummerDesignDay
8,17.109067882849585
10,7233729.991472022
207,2777703.2529414209
2,1, 7,21, 0,21,30.00,40.00,SummerDesignDay
8,17.06975316359479
10,7173637.460517205
207,2776464.6027395867
2,1, 7,21, 0,21,40.00,50.00,SummerDesignDay
8,17.030381184961106
10,7114581.466698735
207,2775212.689345568
2,1, 7,21, 0,21,50.00,60.00,SummerDesignDay
8,16.990952199245954
10,7055515.502621539
207,3151503.334632978
2,1, 7,21, 0,21, 0.00,60.00,SummerDesignDay
441,26.174785263114328
481,23.99794060360654
521,23.99786525544248
2,1, 7,21, 0,22, 0.00,10.00,SummerDesignDay
8,16.951466381705289
10,6996004.399551792
207,3273652.942002016
2,1, 7,21, 0,22,10.00,20.00,SummerDesignDay
8,16.91191764298267
10,6935813.648602249
207,3273633.817878119
2,1, 7,21, 0,22,20.00,30.00,SummerDesignDay
8,16.872316270901277
10,6874917.484686617
207,3273620.882546752
2,1, 7,21, 0,22,30.00,40.00,SummerDesignDay
8,16.832657583970926
10,6813253.364845463
207,3273607.1332162108
2,1, 7,21, 0,22,40.00,50.00,SummerDesignDay
8,16.792940913271754
10,6750756.571904622
207,3273592.374162607
2,1, 7,21, 0,22,50.00,60.00,SummerDesignDay
8,16.75316676384634
10,6687377.608756465
207,3273576.5906991835
2,1, 7,21, 0,22, 0.00,60.00,SummerDesignDay
441,25.83333143821069
481,23.99777279663945
521,23.99759911127627
2,1, 7,21, 0,23, 0.00,10.00,SummerDesignDay
8,16.722189413934204
10,6447084.584895935
207,3551930.3260824077
2,1, 7,21, 0,23,10.00,20.00,SummerDesignDay
8,16.691177401191405
10,6409057.089165727
207,3519717.784347624
2,1, 7,21, 0,23,20.00,30.00,SummerDesignDay
8,16.660129834097096
10,6352215.230650175
207,3224322.047075039
2,1, 7,21, 0,23,30.00,40.00,SummerDesignDay
8,16.62905234664031
10,6294787.472066872
207,3223847.0872057199
2,1, 7,21, 0,23,40.00,50.00,SummerDesignDay
8,16.597934345516849
10,6237427.448492244
207,3223355.0078799079
2,1, 7,21, 0,23,50.00,60.00,SummerDesignDay
8,16.566780836645607
10,6179655.022676383
207,3222858.4469367119
2,1, 7,21, 0,23, 0.00,60.00,SummerDesignDay
441,25.612343381491216
481,23.99824845305849
521,23.997830077901289
2,1, 7,21, 0,24, 0.00,10.00,SummerDesignDay
8,16.53559150074222
10,5988488.173014686
207,3222358.0363037509
2,1, 7,21, 0,24,10.00,20.00,SummerDesignDay
8,16.504366423325597
10,5923999.548992508
207,3221853.73462999
2,1, 7,21, 0,24,20.00,30.00,SummerDesignDay
8,16.473106420779854
10,5918412.792560772
207,3221345.499974534
2,1, 7,21, 0,24,30.00,40.00,SummerDesignDay
8,16.44181049723187
10,5912769.794667476
207,3220833.28980165
2,1, 7,21, 0,24,40.00,50.00,SummerDesignDay
8,16.410483695355663
10,5907161.73276058
207,3220317.060968727
2,1, 7,21, 0,24,50.00,60.00,SummerDesignDay
8,16.379116168301004
10,5901494.142266001
207,3511714.6778339028
2,1, 7,21, 0,24, 0.00,60.00,SummerDesignDay
441,25.414255592294059
481,23.92817588024347
521,23.99809858636691
3,1, 7,21, 0,SummerDesignDay
442,49.003905877088708,41.98712354896614,15,20,55.90497741670391, 5,50
482,59.13898778361794,53.587670034452589,17,60,66.11779580629612, 5,50
522,53.488003933438339,49.55867653669074,18,60,58.83946581156777, 6,60
4,1, 7
7,21.0245,17.5,21, 5,60,25.1,21,14,60
1,VANCOUVER INTL AP ANN HTG 99.6% CONDNS DB,  49.20,-123.18,  -8.00,   4.30
2,1,12,21, 0, 1, 0.00,10.00,WinterDesignDay
8,-6.1
10,5418826.731837062
207,41351624.99316491
2,1,12,21, 0, 1,10.00,20.00,WinterDesignDay
8,-6.1
10,5418826.731837062
207,41316214.38357328
2,1,12,21, 0, 1,20.00,30.00,WinterDesignDay
8,-6.1
10,5418826.731837062
207,41300078.39355298
2,1,12,21, 0, 1,30.00,40.00,WinterDesignDay
8,-6.1
10,5418826.731837062
207,42113242.06770733
2,1,12,21, 0, 1,40.00,50.00,WinterDesignDay
8,-6.1
10,5418826.731837062
207,42211970.8058669
2,1,12,21, 0, 1,50.00,60.00,WinterDesignDay
8,-6.1
10,5418826.731837062
207,42204194.16628323
2,1,12,21, 0, 1, 0.00,60.00,WinterDesignDay
441,15.475752202266449
481,22.00066858656598
521,21.999978922817748
2,1,12,21, 0, 2, 0.00,10.00,WinterDesignDay
8,-6.1
10,3699612.391431661
207,43282165.452152159
2,1,12,21, 0, 2,10.00,20.00,WinterDesignDay
8,-6.1
10,3699612.391431661
207,42766763.13420597
2,1,12,21, 0, 2,20.00,30.00,WinterDesignDay
8,-6.1
10,3699612.391431661
207,41804258.622171249
2,1,12,21, 0, 2,30.00,40.00,WinterDesignDay
8,-6.1
10,3699612.391431661
207,43292357.67634673
2,1,12,21, 0, 2,40.00,50.00,WinterDesignDay
8,-6.1
10,3699612.391431661
207,43515776.44040113
2,1,12,21, 0, 2,50.00,60.00,WinterDesignDay
8,-6.1
10,3699612.391431661
207,43536609.83844278
2,1,12,21, 0, 2, 0.00,60.00,WinterDesignDay
441,15.510468549926698
481,22.000638614039376
521,22.000269637770758
2,1,12,21, 0, 3, 0.00,10.00,WinterDesignDay
8,-6.1
10,1980398.181379328
207,25199706.415982427
2,1,12,21, 0, 3,10.00,20.00,WinterDesignDay
8,-6.1
10,1980398.6909400337
207,28069276.526873806
2,1,12,21, 0, 3,20.00,30.00,WinterDesignDay
8,-6.1
10,1980398.797589622
207,29969911.58717193
2,1,12,21, 0, 3,30.00,40.00,WinterDesignDay
8,-6.1
10,1980398.0510262603
207,30690950.560263207
2,1,12,21, 0, 3,40.00,50.00,WinterDesignDay
8,-6.1
10,1980398.0510262603
207,32313206.57632114
2,1,12,21, 0, 3,50.00,60.00,WinterDesignDay
8,-6.1
10,1980398.0510262603
207,32760275.344754988
2,1,12,21, 0, 3, 0.00,60.00,WinterDesignDay
441,15.508618646869353
481,18.247314015920414
521,18.624693531743366
2,1,12,21, 0, 4, 0.00,10.00,WinterDesignDay
8,-6.1
10,1980398.0510262603
207,31661756.4390202
2,1,12,21, 0, 4,10.00,20.00,WinterDesignDay
8,-6.1
10,1980398.0510262603
207,31771534.58883485
2,1,12,21, 0, 4,20.00,30.00,WinterDesignDay
8,-6.1
10,1980398.0510262603
207,31846924.30883635
2,1,12,21, 0, 4,30.00,40.00,WinterDesignDay
8,-6.1
10,1980398.0510262603
207,31911899.95557242
2,1,12,21, 0, 4,40.00,50.00,WinterDesignDay
8,-6.1
10,1980398.0510262603
207,31968866.67394817
2,1,12,21, 0, 4,50.00,60.00,WinterDesignDay
8,-6.1
10,1980398.0510262603
207,33139262.431825773
2,1,12,21, 0, 4, 0.00,60.00,WinterDesignDay
441,15.385698568167156
481,18.000015188494847
521,17.999978017101289
2,1,12,21, 0, 5, 0.00,10.00,WinterDesignDay
8,-6.1
10,1980398.0510262603
207,33139487.21349898
2,1,12,21, 0, 5,10.00,20.00,WinterDesignDay
8,-6.1
10,1980398.0510262603
207,32105258.063742754
2,1,12,21, 0, 5,20.00,30.00,WinterDesignDay
8,-6.1
10,1980398.0510262603
207,32143184.624921368
2,1,12,21, 0, 5,30.00,40.00,WinterDesignDay
8,-6.1
10,1980398.0510262603
207,32178084.801691735
2,1,12,21, 0, 5,40.00,50.00,WinterDesignDay
8,-6.1
10,1980398.0510262603
207,32208663.22119846
2,1,12,21, 0, 5,50.00,60.00,WinterDesignDay
8,-6.1
10,1980398.0510262603
207,32238105.62901964
2,1,12,21, 0, 5, 0.00,60.00,WinterDesignDay
441,15.182509354274876
481,18.0000134093864
521,17.999994682128699
2,1,12,21, 0, 6, 0.00,10.00,WinterDesignDay
8,-6.1
10,1980398.0510262603
207,33441741.174264105
2,1,12,21, 0, 6,10.00,20.00,WinterDesignDay
8,-6.1
10,1980398.0510262603
207,33314937.886521274
2,1,12,21, 0, 6,20.00,30.00,WinterDesignDay
8,-6.1
10,1980398.0510262603
207,32321223.426641477
2,1,12,21, 0, 6,30.00,40.00,WinterDesignDay
8,-6.1
10,1980398.0510262603
207,32347351.586994444
2,1,12,21, 0, 6,40.00,50.00,WinterDesignDay
8,-6.1
10,1980398.0510262603
207,32372512.86725251
2,1,12,21, 0, 6,50.00,60.00,WinterDesignDay
8,-6.1
10,1980398.0510262603
207,32396950.16092098
2,1,12,21, 0, 6, 0.00,60.00,WinterDesignDay
441,14.972447171196429
481,18.000015370179594
521,17.999999344701274
2,1,12,21, 0, 7, 0.00,10.00,WinterDesignDay
8,-6.1
10,1980398.0510262603
207,32420518.802782917
2,1,12,21, 0, 7,10.00,20.00,WinterDesignDay
8,-6.1
10,1980398.0510262603
207,33655537.550965297
2,1,12,21, 0, 7,20.00,30.00,WinterDesignDay
8,-6.1
10,1980398.0510262603
207,33450660.01931571
2,1,12,21, 0, 7,30.00,40.00,WinterDesignDay
8,-6.1
10,1980398.0510262603
207,32497123.71765372
2,1,12,21, 0, 7,40.00,50.00,WinterDesignDay
8,-6.1
10,1980398.0510262603
207,32525561.447946129
2,1,12,21, 0, 7,50.00,60.00,WinterDesignDay
8,-6.1
10,1980398.0510262603
207,32554380.367003599
2,1,12,21, 0, 7, 0.00,60.00,WinterDesignDay
441,14.76949288524012
481,18.000016676846334
521,18.000001740295205
2,1,12,21, 0, 8, 0.00,10.00,WinterDesignDay
8,-6.1
10,1980398.0510262603
207,32583868.82439601
2,1,12,21, 0, 8,10.00,20.00,WinterDesignDay
8,-6.1
10,1980398.0510262603
207,32613827.61598582
2,1,12,21, 0, 8,20.00,30.00,WinterDesignDay
8,-6.1
10,1980398.0510262603
207,33884843.578832108
2,1,12,21, 0, 8,30.00,40.00,WinterDesignDay
8,-6.1
10,1980398.0510262603
207,33626113.57003769
2,1,12,21, 0, 8,40.00,50.00,WinterDesignDay
8,-6.1
10,1980398.0510262603
207,32703246.94811427
2,1,12,21, 0, 8,50.00,60.00,WinterDesignDay
8,-6.1
10,1980398.0510262603
207,32733520.964426988
2,1,12,21, 0, 8, 0.00,60.00,WinterDesignDay
441,14.575519057667952
481,18.000018018423476
521,18.000003727893448
2,1,12,21, 0, 9, 0.00,10.00,WinterDesignDay
8,-6.1
10,1986325.693334752
207,42112726.62275322
2,1,12,21, 0, 9,10.00,20.00,WinterDesignDay
8,-6.1
10,1980398.0510262603
207,33945014.921113599
2,1,12,21, 0, 9,20.00,30.00,WinterDesignDay
8,-6.1
10,1980398.0510262603
207,40122952.1936442
2,1,12,21, 0, 9,30.00,40.00,WinterDesignDay
8,-6.1
10,1980398.0510262603
207,40015461.97411361
2,1,12,21, 0, 9,40.00,50.00,WinterDesignDay
8,-6.1
10,1980398.0510262603
207,39581407.96364751
2,1,12,21, 0, 9,50.00,60.00,WinterDesignDay
8,-6.1
10,1980398.0510262603
207,38617914.54604739
2,1,12,21, 0, 9, 0.00,60.00,WinterDesignDay
441,14.402357136273473
481,19.99497632515484
521,19.9730765225879
2,1,12,21, 0,10, 0.00,10.00,WinterDesignDay
8,-6.1
10,3705540.0337401528
207,51115231.60243594
2,1,12,21, 0,10,10.00,20.00,WinterDesignDay
8,-6.1
10,3699612.391431661
207,42264411.458883289
2,1,12,21, 0,10,20.00,30.00,WinterDesignDay
8,-6.1
10,3699612.391431661
207,47544630.94230144
2,1,12,21, 0,10,30.00,40.00,WinterDesignDay
8,-6.1
10,3699612.391431661
207,46289755.654192958
2,1,12,21, 0,10,40.00,50.00,WinterDesignDay
8,-6.1
10,3699612.391431661
207,46031788.046262908
2,1,12,21, 0,10,50.00,60.00,WinterDesignDay
8,-6.1
10,3699612.391431661
207,45908271.32585579
2,1,12,21, 0,10, 0.00,60.00,WinterDesignDay
441,14.290689857229973
481,21.98430423534867
521,21.96868204449527
2,1,12,21, 0,11, 0.00,10.00,WinterDesignDay
8,-6.1
10,4559219.561634362
207,45275889.95925409
2,1,12,21, 0,11,10.00,20.00,WinterDesignDay
8,-6.1
10,4559219.561634362
207,45557623.652683798
2,1,12,21, 0,11,20.00,30.00,WinterDesignDay
8,-6.1
10,4559219.561634362
207,45468105.95589794
2,1,12,21, 0,11,30.00,40.00,WinterDesignDay
8,-6.1
10,4559219.561634362
207,45393867.462299447
2,1,12,21, 0,11,40.00,50.00,WinterDesignDay
8,-6.1
10,4559219.561634362
207,45330609.715027648
2,1,12,21, 0,11,50.00,60.00,WinterDesignDay
8,-6.1
10,4559219.561634362
207,45275396.09969694
2,1,12,21, 0,11, 0.00,60.00,WinterDesignDay
441,14.306574168186169
481,22.000976064480445
521,22.000418659244436
2,1,12,21, 0,12, 0.00,10.00,WinterDesignDay
8,-6.1
10,5418826.731837062
207,43315341.52283133
2,1,12,21, 0,12,10.00,20.00,WinterDesignDay
8,-6.1
10,5418826.731837062
207,41340526.66460419
2,1,12,21, 0,12,20.00,30.00,WinterDesignDay
8,-6.1
10,5418826.731837062
207,43487044.664067629
2,1,12,21, 0,12,30.00,40.00,WinterDesignDay
8,-6.1
10,5418826.731837062
207,43427709.44248178
2,1,12,21, 0,12,40.00,50.00,WinterDesignDay
8,-6.1
10,5418826.731837062
207,41180057.75417645
2,1,12,21, 0,12,50.00,60.00,WinterDesignDay
8,-6.1
10,5418826.731837062
207,43070820.360563438
2,1,12,21, 0,12, 0.00,60.00,WinterDesignDay
441,14.40498276226819
481,22.000809168532645
521,22.000275134084946
2,1,12,21, 0,13, 0.00,10.00,WinterDesignDay
8,-6.1
10,5418826.731837062
207,42655440.607553217
2,1,12,21, 0,13,10.00,20.00,WinterDesignDay
8,-6.1
10,5418826.731837062
207,42549640.06228492
2,1,12,21, 0,13,20.00,30.00,WinterDesignDay
8,-6.1
10,5418826.731837062
207,41218773.6305796
2,1,12,21, 0,13,30.00,40.00,WinterDesignDay
8,-6.1
10,5418826.731837062
207,41218470.05720368
2,1,12,21, 0,13,40.00,50.00,WinterDesignDay
8,-6.1
10,5418826.731837062
207,42396493.648879397
2,1,12,21, 0,13,50.00,60.00,WinterDesignDay
8,-6.1
10,5418826.731837062
207,42355080.5581366
2,1,12,21, 0,13, 0.00,60.00,WinterDesignDay
441,14.526761073275685
481,22.000660061988929
521,22.000160210789628
2,1,12,21, 0,14, 0.00,10.00,WinterDesignDay
8,-6.1
10,5418826.731837062
207,42715230.620138999
2,1,12,21, 0,14,10.00,20.00,WinterDesignDay
8,-6.1
10,5418826.731837062
207,42477172.118585098
2,1,12,21, 0,14,20.00,30.00,WinterDesignDay
8,-6.1
10,5418826.731837062
207,41686012.19695729
2,1,12,21, 0,14,30.00,40.00,WinterDesignDay
8,-6.1
10,5418826.731837062
207,41642812.42170968
2,1,12,21, 0,14,40.00,50.00,WinterDesignDay
8,-6.1
10,5418826.731837062
207,41827266.01168441
2,1,12,21, 0,14,50.00,60.00,WinterDesignDay
8,-6.1
10,5418826.731837062
207,42496018.639132019
2,1,12,21, 0,14, 0.00,60.00,WinterDesignDay
441,14.652188971521774
481,22.000758709803085
521,22.000153077376468
2,1,12,21, 0,15, 0.00,10.00,WinterDesignDay
8,-6.1
10,5418826.731837062
207,43048638.33705452
2,1,12,21, 0,15,10.00,20.00,WinterDesignDay
8,-6.1
10,5418826.731837062
207,43032639.72083959
2,1,12,21, 0,15,20.00,30.00,WinterDesignDay
8,-6.1
10,5418826.731837062
207,43009218.1332351
2,1,12,21, 0,15,30.00,40.00,WinterDesignDay
8,-6.1
10,5418826.731837062
207,42924267.03170656
2,1,12,21, 0,15,40.00,50.00,WinterDesignDay
8,-6.1
10,5418826.731837062
207,42037602.61444843
2,1,12,21, 0,15,50.00,60.00,WinterDesignDay
8,-6.1
10,5418826.731837062
207,42002858.74013055