Program Version,EnergyPlus, Version 8.9.0-eba93e8e1b, YMD=2018.09.18 17:10
1,5,Environment Title[],Latitude[deg],Longitude[deg],Time Zone[],Elevation[m]
2,8,Day of Simulation[],Month[],Day of Month[],DST Indicator[1=yes 0=no],Hour[],StartMinute[],EndMinute[],DayType
3,5,Cumulative Day of Simulation[],Month[],Day of Month[],DST Indicator[1=yes 0=no],DayType  ! When Daily Report Variables Requested
4,2,Cumulative Days of Simulation[],Month[]  ! When Monthly Report Variables Requested
5,1,Cumulative Days of Simulation[] ! When Run Period Report Variables Requested
6,1,Calendar Year of Simulation[] ! When Annual Report Variables Requested
7,9,Environment,Site Outdoor Air Drybulb Temperature [C] !Monthly [Value,Min,Day,Hour,Minute,Max,Day,Hour,Minute]
8,1,Environment,Site Outdoor Air Wetbulb Temperature [C] !TimeStep
555,1,SP-ATTIC SYS-0 FLR-2 SCH-- UNDEFINED - HPLCMT-CORE ZN,Zone Air Temperature [C] !Hourly
556,7,SP-ATTIC SYS-0 FLR-2 SCH-- UNDEFINED - HPLCMT-CORE ZN,Zone Air Relative Humidity [%] !Daily [Value,Min,Hour,Minute,Max,Hour,Minute]
595,1,SP-CORE_ZN SYS-3 FLR-1 SCH-A HPLCMT-CORE ZN,Zone Air Temperature [C] !Hourly
596,7,SP-CORE_ZN SYS-3 FLR-1 SCH-A HPLCMT-CORE ZN,Zone Air Relative Humidity [%] !Daily [Value,Min,Hour,Minute,Max,Hour,Minute]
635,1,SP-PERIMETER_ZN_1 SYS-3 FLR-1 SCH-A HPLCMT-SOUTH ZN,Zone Air Temperature [C] !Hourly
636,7,SP-PERIMETER_ZN_1 SYS-3 FLR-1 SCH-A HPLCMT-SOUTH ZN,Zone Air Relative Humidity [%] !Daily [Value,Min,Hour,Minute,Max,Hour,Minute]
675,1,SP-PERIMETER_ZN_2 SYS-3 FLR-1 SCH-A HPLCMT-EAST ZN,Zone Air Temperature [C] !Hourly
676,7,SP-PERIMETER_ZN_2 SYS-3 FLR-1 SCH-A HPLCMT-EAST ZN,Zone Air Relative Humidity [%] !Daily [Value,Min,Hour,Minute,Max,Hour,Minute]
715,1,SP-PERIMETER_ZN_3 SYS-3 FLR-1 SCH-A HPLCMT-NORTH ZN,Zone Air Temperature [C] !Hourly
716,7,SP-PERIMETER_ZN_3 SYS-3 FLR-1 SCH-A HPLCMT-NORTH ZN,Zone Air Relative Humidity [%] !Daily [Value,Min,Hour,Minute,Max,Hour,Minute]
755,1,SP-PERIMETER_ZN_4 SYS-3 FLR-1 SCH-A HPLCMT-WEST ZN,Zone Air Temperature [C] !Hourly
756,7,SP-PERIMETER_ZN_4 SYS-3 FLR-1 SCH-A HPLCMT-WEST ZN,Zone Air Relative Humidity [%] !Daily [Value,Min,Hour,Minute,Max,Hour,Minute]
10,1,Electricity:Facility [J] !TimeStep
321,1,Gas:Facility [J] !TimeStep
End of Data Dictionary
1,VANCOUVER INTL AP ANN CLG .4% CONDNS DB=>MWB,  49.20,-123.18,  -8.00,   4.30
2,1, 7,21, 0, 1, 0.00,10.00,SummerDesignDay
8,16.352199953652215
10,888243.3975740699
321,12000.0
2,1, 7,21, 0, 1,10.00,20.00,SummerDesignDay
8,16.3252576442975
10,888243.3975740699
321,12000.0
2,1, 7,21, 0, 1,20.00,30.00,SummerDesignDay
8,16.2982938306074
10,888243.3975740699
321,580560.0131828184
2,1, 7,21, 0, 1,30.00,40.00,SummerDesignDay
8,16.271298954341999
10,888243.3975740699
321,12000.0
2,1, 7,21, 0, 1,40.00,50.00,SummerDesignDay
8,16.244276700157607
10,888243.3975740699
321,585056.065905388
2,1, 7,21, 0, 1,50.00,60.00,SummerDesignDay
8,16.217228272321866
10,888243.3975740699
321,12000.0
2,1, 7,21, 0, 1, 0.00,60.00,SummerDesignDay
555,24.970925538764843
595,25.235307944631086
635,25.19599128348038
675,25.457879062490169
715,25.06948978267651
755,25.90429901333034
2,1, 7,21, 0, 2, 0.00,10.00,SummerDesignDay
8,16.199184445315237
10,888243.3975740699
321,280309.790790729
2,1, 7,21, 0, 2,10.00,20.00,SummerDesignDay
8,16.181123823551326
10,888243.3975740699
321,314500.65088054668
2,1, 7,21, 0, 2,20.00,30.00,SummerDesignDay
8,16.163056857826836
10,888243.3975740699
321,12000.0
2,1, 7,21, 0, 2,30.00,40.00,SummerDesignDay
8,16.144971888810827
10,888243.3975740699
321,582517.0766678208
2,1, 7,21, 0, 2,40.00,50.00,SummerDesignDay
8,16.12688104636919
10,888243.3975740699
321,12000.0
2,1, 7,21, 0, 2,50.00,60.00,SummerDesignDay
8,16.108773026303486
10,888243.3975740699
321,586829.7385594777
2,1, 7,21, 0, 2, 0.00,60.00,SummerDesignDay
555,24.801531519028474
595,25.087940984129149
635,25.017397437890894
675,25.280038144197019
715,24.898728747947048
755,25.700733906879447
2,1, 7,21, 0, 3, 0.00,10.00,SummerDesignDay
8,16.095187997840726
10,888243.3975740699
321,12000.0
2,1, 7,21, 0, 3,10.00,20.00,SummerDesignDay
8,16.08159647937563
10,888243.3975740699
321,12000.0
2,1, 7,21, 0, 3,20.00,30.00,SummerDesignDay
8,16.067992103020477
10,888243.3975740699
321,579807.1878610525
2,1, 7,21, 0, 3,30.00,40.00,SummerDesignDay
8,16.054387489767213
10,888243.3975740699
321,12000.0
2,1, 7,21, 0, 3,40.00,50.00,SummerDesignDay
8,16.040775235496488
10,888243.3975740699
321,584379.0622515767
2,1, 7,21, 0, 3,50.00,60.00,SummerDesignDay
8,16.027151463515208
10,888243.3975740699
321,12000.0
2,1, 7,21, 0, 3, 0.00,60.00,SummerDesignDay
555,24.64502125033872
595,24.949984354811094
635,24.850671299406114
675,25.11114612447473
715,24.739564666518164
755,25.505317222009013
2,1, 7,21, 0, 4, 0.00,10.00,SummerDesignDay
8,16.013526309671386
10,888243.3975740699
321,390895.50359213657
2,1, 7,21, 0, 4,10.00,20.00,SummerDesignDay
8,15.999888590638458
10,888243.3975740699
321,205741.38852331369
2,1, 7,21, 0, 4,20.00,30.00,SummerDesignDay
8,15.986249958378048
10,888243.3975740699
321,12000.0
2,1, 7,21, 0, 4,30.00,40.00,SummerDesignDay
8,15.972604339068287
10,888243.3975740699
321,581837.8719105423
2,1, 7,21, 0, 4,40.00,50.00,SummerDesignDay
8,15.958946698244901
10,888243.3975740699
321,12000.0
2,1, 7,21, 0, 4,50.00,60.00,SummerDesignDay
8,15.945287702730492
10,888243.3975740699
321,586212.5071918969
2,1, 7,21, 0, 4, 0.00,60.00,SummerDesignDay
555,24.49384264403373
595,24.816938217852067
635,24.691098604681235
675,24.94904378029824
715,24.586810920111977
755,25.317760820785879
2,1, 7,21, 0, 5, 0.00,10.00,SummerDesignDay
8,15.936177990809899
10,888243.3975740699
321,12000.0
2,1, 7,21, 0, 5,10.00,20.00,SummerDesignDay
8,15.92705949178547
10,888243.3975740699
321,74050.81597548734
2,1, 7,21, 0, 5,20.00,30.00,SummerDesignDay
8,15.917943710706878
10,888243.3975740699
321,517884.41041050848
2,1, 7,21, 0, 5,30.00,40.00,SummerDesignDay
8,15.908825155859729
10,888243.3975740699
321,12000.0
2,1, 7,21, 0, 5,40.00,50.00,SummerDesignDay
8,15.89970321878413
10,888243.3975740699
321,583686.3360719711
2,1, 7,21, 0, 5,50.00,60.00,SummerDesignDay
8,15.89058503181825
10,888243.3975740699
321,12000.0
2,1, 7,21, 0, 5, 0.00,60.00,SummerDesignDay
555,24.378115218715707
595,24.689612937399873
635,24.545371087576276
675,24.874680385320955
715,24.480789971092596
755,25.143706914050197
2,1, 7,21, 0, 6, 0.00,10.00,SummerDesignDay
8,15.89970321878413
10,899759.8575224081
321,498496.2500474293
2,1, 7,21, 0, 6,10.00,20.00,SummerDesignDay
8,15.908825155859729
10,902185.8909331181
321,99783.66251315523
2,1, 7,21, 0, 6,20.00,30.00,SummerDesignDay
8,15.917943710706878
10,905361.7258354197
321,12000.0
2,1, 7,21, 0, 6,30.00,40.00,SummerDesignDay
8,15.92705949178547
10,908070.0075759026
321,581129.4886643709
2,1, 7,21, 0, 6,40.00,50.00,SummerDesignDay
8,15.936177990809899
10,893811.9058670547
321,12000.0
2,1, 7,21, 0, 6,50.00,60.00,SummerDesignDay
8,15.945287702730492
10,903009.9003719454
321,599156.221544019
2,1, 7,21, 0, 6, 0.00,60.00,SummerDesignDay
555,24.628838463563328
595,24.669929148540687
635,24.555999290255405
675,25.89428570854467
715,24.746485904181737
755,25.100253012961166
2,1, 7,21, 0, 7, 0.00,10.00,SummerDesignDay
8,15.977153459569559
10,2335443.2323544898
321,61961.338034940454
2,1, 7,21, 0, 7,10.00,20.00,SummerDesignDay
8,16.00898303120887
10,1883879.211855678
321,192716.63955309147
2,1, 7,21, 0, 7,20.00,30.00,SummerDesignDay
8,16.040775235496488
10,2016904.1125937827
321,401883.79113846979
2,1, 7,21, 0, 7,30.00,40.00,SummerDesignDay
8,16.072525945973774
10,1872884.8460095465
321,12000.0
2,1, 7,21, 0, 7,40.00,50.00,SummerDesignDay
8,16.104245538982189
10,1849217.5922940842
321,582978.8879522873
2,1, 7,21, 0, 7,50.00,60.00,SummerDesignDay
8,16.135928228205914
10,1848891.5930276388
321,12000.0
2,1, 7,21, 0, 7, 0.00,60.00,SummerDesignDay
555,25.133249802960568
595,24.006507520615846
635,24.005664611360769
675,24.090411570980249
715,24.01268177588113
755,24.010929967213256
2,1, 7,21, 0, 8, 0.00,10.00,SummerDesignDay
8,16.212718231329928
10,2917308.8772397197
321,611341.1040313848
2,1, 7,21, 0, 8,10.00,20.00,SummerDesignDay
8,16.289295095914626
10,2954790.4142625525
321,12000.0
2,1, 7,21, 0, 8,20.00,30.00,SummerDesignDay
8,16.365658732225424
10,2976824.3306199267
321,612991.4388813193
2,1, 7,21, 0, 8,30.00,40.00,SummerDesignDay
8,16.44181049723187
10,2995913.6780890326
321,12000.0
2,1, 7,21, 0, 8,40.00,50.00,SummerDesignDay
8,16.517756147764346
10,3014808.794061374
321,611879.8515126815
2,1, 7,21, 0, 8,50.00,60.00,SummerDesignDay
8,16.593486849767513
10,3033860.6914815555
321,12000.0
2,1, 7,21, 0, 8, 0.00,60.00,SummerDesignDay
555,25.884572659298898
595,23.9998000180281
635,23.99983533783846
675,23.999066245731794
715,23.999788538591635
755,23.999923296628436
2,1, 7,21, 0, 9, 0.00,10.00,SummerDesignDay
8,16.677878063199516
10,7092334.083270536
321,969858.3961565449
2,1, 7,21, 0, 9,10.00,20.00,SummerDesignDay
8,16.76200946235728
10,7201052.043343635
321,1036632.7197964442
2,1, 7,21, 0, 9,20.00,30.00,SummerDesignDay
8,16.845887031033866
10,7248774.007949498
321,1036781.8266558459
2,1, 7,21, 0, 9,30.00,40.00,SummerDesignDay
8,16.929502190751337
10,7292933.887287584
321,1036991.759302743
2,1, 7,21, 0, 9,40.00,50.00,SummerDesignDay
8,17.012861351115086
10,7332206.253431919
321,1037203.3234825258
2,1, 7,21, 0, 9,50.00,60.00,SummerDesignDay
8,17.09597057951627
10,7367247.517241651
321,1037416.1335745243
2,1, 7,21, 0, 9, 0.00,60.00,SummerDesignDay
555,26.72580991248282
595,23.998932680842278
635,23.99918042753552
675,23.998773062723065
715,23.99896861554173
755,23.999592717376687
2,1, 7,21, 0,10, 0.00,10.00,SummerDesignDay
8,17.17011313897211
10,8140574.81033782
321,1037630.1846614004
2,1, 7,21, 0,10,10.00,20.00,SummerDesignDay
8,17.24405314489198
10,8177296.375794068
321,1037845.4705382206
2,1, 7,21, 0,10,20.00,30.00,SummerDesignDay
8,17.317792342150307
10,8201488.58752855
321,930523.0361315942
2,1, 7,21, 0,10,30.00,40.00,SummerDesignDay
8,17.391330750865035
10,8221257.084984806
321,927714.2680587729
2,1, 7,21, 0,10,40.00,50.00,SummerDesignDay
8,17.464669750704549
10,8237551.378469348
321,927385.3484390638
2,1, 7,21, 0,10,50.00,60.00,SummerDesignDay
8,17.537810589481837
10,8251248.520486679
321,927049.2656439184
2,1, 7,21, 0,10, 0.00,60.00,SummerDesignDay
555,27.580992221667505
595,23.99840569300565
635,23.99864053200532
675,23.99863584154944
715,23.998461334404174
755,23.999332561054186
2,1, 7,21, 0,11, 0.00,10.00,SummerDesignDay
8,17.60218312883583
10,8261430.527797889
321,1290672.8546770076
2,1, 7,21, 0,11,10.00,20.00,SummerDesignDay
8,17.666401914182499
10,8299080.304945852
321,1895856.160875465
2,1, 7,21, 0,11,20.00,30.00,SummerDesignDay
8,17.73046886665172
10,8313208.834990562
321,1637283.7232625806
2,1, 7,21, 0,11,30.00,40.00,SummerDesignDay
8,17.794377337180749
10,8333699.979387766
321,1573927.3130008288
2,1, 7,21, 0,11,40.00,50.00,SummerDesignDay
8,17.858140091722729
10,8353366.895522771
321,1895856.160875465
2,1, 7,21, 0,11,50.00,60.00,SummerDesignDay
8,17.921751671476274
10,8377817.078817728
321,1315891.4463077416
2,1, 7,21, 0,11, 0.00,60.00,SummerDesignDay
555,28.30724974941168
595,23.99820982215955
635,23.998165106242238
675,23.998931769528565
715,23.998280672487938
755,23.99919644284567
2,1, 7,21, 0,12, 0.00,10.00,SummerDesignDay
8,17.964074041059168
10,8397407.047030895
321,1895856.160875465
2,1, 7,21, 0,12,10.00,20.00,SummerDesignDay
8,18.00633512830953
10,8421582.151487332
321,1315639.1846239626
2,1, 7,21, 0,12,20.00,30.00,SummerDesignDay
8,18.048524057857607
10,8448220.661867068
321,1895856.160875465
2,1, 7,21, 0,12,30.00,40.00,SummerDesignDay
8,18.090647246552004
10,8477166.526618932
321,1315378.8368603797
2,1, 7,21, 0,12,40.00,50.00,SummerDesignDay
8,18.132703529720616
10,8505092.28418923
321,1895856.160875465
2,1, 7,21, 0,12,50.00,60.00,SummerDesignDay
8,18.17469964536842
10,8531722.872747019
321,1315111.550732146
2,1, 7,21, 0,12, 0.00,60.00,SummerDesignDay
555,28.855536995377155
595,23.997958182264914
635,23.997707658982493
675,23.998985980648557
715,23.99805129479746
755,23.999079897413
2,1, 7,21, 0,13, 0.00,10.00,SummerDesignDay
8,18.208245339828517
10,8451882.568327416
321,1895856.160875465
2,1, 7,21, 0,13,10.00,20.00,SummerDesignDay
8,18.241744233723979
10,8465141.089429612
321,1461796.1036420607
2,1, 7,21, 0,13,20.00,30.00,SummerDesignDay
8,18.2752069112248
10,8479194.245787347
321,1749110.5077436649
2,1, 7,21, 0,13,30.00,40.00,SummerDesignDay
8,18.30862693969058
10,8489513.566728535
321,1803077.621038466
2,1, 7,21, 0,13,40.00,50.00,SummerDesignDay
8,18.342005526737105
10,8502448.816182182
321,1408513.1401837732
2,1, 7,21, 0,13,50.00,60.00,SummerDesignDay
8,18.375341817792614
10,8511962.885200022
321,1895856.160875465
2,1, 7,21, 0,13, 0.00,60.00,SummerDesignDay
555,29.21143772318906
595,23.998161007434875
635,23.99791857177296
675,23.999042459878966
715,23.998234475861627
755,23.999180171100539
2,1, 7,21, 0,14, 0.00,10.00,SummerDesignDay
8,18.39615811087369
10,8520325.03395306
321,1315770.2763652167
2,1, 7,21, 0,14,10.00,20.00,SummerDesignDay
8,18.416957955881725
10,8526181.002369414
321,1895856.160875465
2,1, 7,21, 0,14,20.00,30.00,SummerDesignDay
8,18.43773680274513
10,8537337.495182312
321,1315513.695631296
2,1, 7,21, 0,14,30.00,40.00,SummerDesignDay
8,18.458504433044504
10,8552827.25714539
321,1895856.160875465
2,1, 7,21, 0,14,40.00,50.00,SummerDesignDay
8,18.479250383250578
10,8572858.38678897
321,1315249.9560290205
2,1, 7,21, 0,14,50.00,60.00,SummerDesignDay
8,18.499985692685468
10,8597375.528406555
321,1895856.160875465
2,1, 7,21, 0,14, 0.00,60.00,SummerDesignDay
555,29.384914730690935
595,23.998265669263018
635,23.99823156034103
675,23.999060852675517
715,23.99832768752971
755,23.99917655784645
2,1, 7,21, 0,15, 0.00,10.00,SummerDesignDay
8,18.499985692685468
10,8721894.385934106
321,1314979.3747003324
2,1, 7,21, 0,15,10.00,20.00,SummerDesignDay
8,18.499985692685468
10,8757661.276300386
321,1895856.160875465
2,1, 7,21, 0,15,20.00,30.00,SummerDesignDay
8,18.499985692685468
10,8793400.627455926
321,1627553.364604339
2,1, 7,21, 0,15,30.00,40.00,SummerDesignDay
8,18.499985692685468
10,8831781.77765594
321,1583636.7652644106
2,1, 7,21, 0,15,40.00,50.00,SummerDesignDay
8,18.499985692685468
10,8865198.334855808
321,1895856.160875465
2,1, 7,21, 0,15,50.00,60.00,SummerDesignDay
8,18.499985692685468
10,8899209.267869458
321,1315898.5112276823
2,1, 7,21, 0,15, 0.00,60.00,SummerDesignDay
555,29.36780805185424
595,23.997919148596439
635,23.998180852536494
675,23.99887293847351
715,23.997997007672454
755,23.998508724939737
2,1, 7,21, 0,16, 0.00,10.00,SummerDesignDay
8,18.475102970177127
10,8922293.948253688
321,1895856.160875465
2,1, 7,21, 0,16,10.00,20.00,SummerDesignDay
8,18.450201543271235
10,8944734.02282365
321,1315646.5297233058
2,1, 7,21, 0,16,20.00,30.00,SummerDesignDay
8,18.425271777286019
10,8957669.041814708
321,1895856.160875465
2,1, 7,21, 0,16,30.00,40.00,SummerDesignDay
8,18.40031825447926
10,8966514.608456785
321,1315386.3832550368
2,1, 7,21, 0,16,40.00,50.00,SummerDesignDay
8,18.375341817792614
10,8972139.88742026
321,1895856.160875465
2,1, 7,21, 0,16,50.00,60.00,SummerDesignDay
8,18.350347174046595
10,8975030.359562826
321,1315119.2929098465
2,1, 7,21, 0,16, 0.00,60.00,SummerDesignDay
555,29.145696966198199
595,23.997647552377573
635,23.99815097839523
675,23.998774973699097
715,23.997727813130628
755,23.99776659465803
2,1, 7,21, 0,17, 0.00,10.00,SummerDesignDay
8,18.316978860635527
10,8975628.4328089
321,1582201.4183997384
2,1, 7,21, 0,17,10.00,20.00,SummerDesignDay
8,18.2835693630182
10,8960944.14907736
321,1490772.3108323473
2,1, 7,21, 0,17,20.00,30.00,SummerDesignDay
8,18.250118050746214
10,8954749.161206734
321,1170818.6859376413
2,1, 7,21, 0,17,30.00,40.00,SummerDesignDay
8,18.216624325548968
10,8946901.6187331
321,1170004.6018438666
2,1, 7,21, 0,17,40.00,50.00,SummerDesignDay
8,18.183088861944893
10,8938550.78608795
321,1169013.7822580657
2,1, 7,21, 0,17,50.00,60.00,SummerDesignDay
8,18.149510843493635
10,8929637.256150555
321,1408793.9041600859
2,1, 7,21, 0,17, 0.00,60.00,SummerDesignDay
555,28.72649104637199
595,23.997621549461443
635,23.998197850294479
675,23.99882654708583
715,23.9977206704271
755,23.99776013216184
2,1, 7,21, 0,18, 0.00,10.00,SummerDesignDay
8,18.10748062898272
10,8453291.550709293
321,1073896.5858218659
2,1, 7,21, 0,18,10.00,20.00,SummerDesignDay
8,18.065379091048376
10,8412863.874987176
321,1037004.1161648623
2,1, 7,21, 0,18,20.00,30.00,SummerDesignDay
8,18.023216461654344
10,8382626.078151749
321,1037258.0015871475
2,1, 7,21, 0,18,30.00,40.00,SummerDesignDay
8,17.980987605947548
10,8350909.286986069
321,1037471.6563001179
2,1, 7,21, 0,18,40.00,50.00,SummerDesignDay
8,17.93869205826644
10,8322945.24380755
321,1037686.028572549
2,1, 7,21, 0,18,50.00,60.00,SummerDesignDay
8,17.89632405402092
10,8297703.619741895
321,1011845.4731423272
2,1, 7,21, 0,18, 0.00,60.00,SummerDesignDay
555,28.13003594921781
595,23.99805315248633
635,23.998503652664117
675,23.99907347895795
715,23.998147798341738
755,23.998258156470269
2,1, 7,21, 0,19, 0.00,10.00,SummerDesignDay
8,17.832657261722244
10,5835243.084866058
321,513568.0280098334
2,1, 7,21, 0,19,10.00,20.00,SummerDesignDay
8,17.768833985856515
10,5756436.558927082
321,438417.5167639541
2,1, 7,21, 0,19,20.00,30.00,SummerDesignDay
8,17.704859478274899
10,5706436.385200964
321,629278.8445110313
2,1, 7,21, 0,19,30.00,40.00,SummerDesignDay
8,17.640731707059819
10,5657524.331756268
321,767702.9963889411
2,1, 7,21, 0,19,40.00,50.00,SummerDesignDay
8,17.576451319157326
10,5610250.962490596
321,768788.2302482375
2,1, 7,21, 0,19,50.00,60.00,SummerDesignDay
8,17.512016904905339
10,5562535.864044154
321,769966.6129944983
2,1, 7,21, 0,19, 0.00,60.00,SummerDesignDay
555,27.380223177292704
595,23.999037292209058
635,23.999247704343977
675,23.99953055199833
715,23.99899422586864
755,23.999103790145296
2,1, 7,21, 0,20, 0.00,10.00,SummerDesignDay
8,17.464669750704549
10,3707403.309173499
321,369870.6925326658
2,1, 7,21, 0,20,10.00,20.00,SummerDesignDay
8,17.417239543286124
10,3621357.6633237686
321,328297.8295117366
2,1, 7,21, 0,20,20.00,30.00,SummerDesignDay
8,17.369720602565694
10,3550088.7395882837
321,680170.1462158669
2,1, 7,21, 0,20,30.00,40.00,SummerDesignDay
8,17.32212315858905
10,3472169.0466980969
321,683805.7386490741
2,1, 7,21, 0,20,40.00,50.00,SummerDesignDay
8,17.27444149556641
10,3388289.900300692
321,48556.811742537364
2,1, 7,21, 0,20,50.00,60.00,SummerDesignDay
8,17.22667133087272
10,3302516.1318575239
321,642727.7063221877
2,1, 7,21, 0,20, 0.00,60.00,SummerDesignDay
555,26.602034564344206
595,23.99963429863418
635,23.999710162453114
675,23.999803899576006
715,23.99955415500705
755,23.999704440398415
2,1, 7,21, 0,21, 0.00,10.00,SummerDesignDay
8,17.187526559563478
10,3215794.340140064
321,681519.0823084291
2,1, 7,21, 0,21,10.00,20.00,SummerDesignDay
8,17.14832575016431
10,3153063.0560715559
321,473064.8914724435
2,1, 7,21, 0,21,20.00,30.00,SummerDesignDay
8,17.109067882849585
10,3103366.1987330748
321,222293.55869472179
2,1, 7,21, 0,21,30.00,40.00,SummerDesignDay
8,17.06975316359479
10,3060888.96244971
321,679822.9271519116
2,1, 7,21, 0,21,40.00,50.00,SummerDesignDay
8,17.030381184961106
10,3023446.3842088959
321,683217.4971166381
2,1, 7,21, 0,21,50.00,60.00,SummerDesignDay
8,16.990952199245954
10,2989822.6964716727
321,160757.4472256662
2,1, 7,21, 0,21, 0.00,60.00,SummerDesignDay
555,25.937797598673858
595,23.999808455830804
635,23.999851797516049
675,23.999888555620215
715,23.999838757462258
755,23.999930712892874
2,1, 7,21, 0,22, 0.00,10.00,SummerDesignDay
8,16.951466381705289
10,1077123.1345079907
321,532297.1333893596
2,1, 7,21, 0,22,10.00,20.00,SummerDesignDay
8,16.91191764298267
10,1071998.9170470222
321,785451.9130208858
2,1, 7,21, 0,22,20.00,30.00,SummerDesignDay
8,16.872316270901277
10,1016917.7917792713
321,569893.2432338041
2,1, 7,21, 0,22,30.00,40.00,SummerDesignDay
8,16.832657583970926
10,1081089.908335151
321,143914.12473190443
2,1, 7,21, 0,22,40.00,50.00,SummerDesignDay
8,16.792940913271754
10,1016917.7917792713
321,679611.861415832
2,1, 7,21, 0,22,50.00,60.00,SummerDesignDay
8,16.75316676384634
10,1057751.6655756687
321,682760.2760231349
2,1, 7,21, 0,22, 0.00,60.00,SummerDesignDay
555,25.607359334812157
595,25.047231131422703
635,25.092309706157424
675,25.188846319549726
715,25.024350412793188
755,25.510255839123688
2,1, 7,21, 0,23, 0.00,10.00,SummerDesignDay
8,16.722189413934204
10,1016917.7917792713
321,12000.0
2,1, 7,21, 0,23,10.00,20.00,SummerDesignDay
8,16.691177401191405
10,1016917.7917792713
321,585752.6385398057
2,1, 7,21, 0,23,20.00,30.00,SummerDesignDay
8,16.660129834097096
10,1016917.7917792713
321,13495.973177868891
2,1, 7,21, 0,23,30.00,40.00,SummerDesignDay
8,16.62905234664031
10,1016917.7917792713
321,12000.0
2,1, 7,21, 0,23,40.00,50.00,SummerDesignDay
8,16.597934345516849
10,1016917.7917792713
321,580513.0438455321
2,1, 7,21, 0,23,50.00,60.00,SummerDesignDay
8,16.566780836645607
10,1016917.7917792713
321,12000.0
2,1, 7,21, 0,23, 0.00,60.00,SummerDesignDay
555,25.3515284244277
595,25.50494920912187
635,25.50832435427256
675,25.69948100119768
715,25.394303684143453
755,26.14733589711606
2,1, 7,21, 0,24, 0.00,10.00,SummerDesignDay
8,16.53559150074222
10,888243.3975740699
321,585014.1263005553
2,1, 7,21, 0,24,10.00,20.00,SummerDesignDay
8,16.504366423325597
10,888243.3975740699
321,12000.0
2,1, 7,21, 0,24,20.00,30.00,SummerDesignDay
8,16.473106420779854
10,888243.3975740699
321,287343.8615513841
2,1, 7,21, 0,24,30.00,40.00,SummerDesignDay
8,16.44181049723187
10,888243.3975740699
321,307581.81619385528
2,1, 7,21, 0,24,40.00,50.00,SummerDesignDay
8,16.410483695355663
10,888243.3975740699
321,12000.0
2,1, 7,21, 0,24,50.00,60.00,SummerDesignDay
8,16.379116168301004
10,888243.3975740699
321,582475.1426298256
2,1, 7,21, 0,24, 0.00,60.00,SummerDesignDay
555,25.154940996960055
595,25.39826201886011
635,25.38562763063862
675,25.635645669740354
715,25.253562352308025
755,26.100026288766999
3,1, 7,21, 0,SummerDesignDay
556,48.878730374179017,41.444830890701179,14,60,55.79934203510528, 5,40
596,51.83958844492682,46.80116167951586,22,19,56.75463809147606, 7, 4
636,50.72837864302147,46.3812682291951,22,19,56.568148875821439, 7, 2
676,48.38454121815923,41.45991874459841, 9,20,54.074156957922649, 5,30
716,51.303710378927657,46.350789334737509,22,16,56.48126018173698, 7, 4
756,48.44070369411804,42.125399306500479,22,29,55.59209470622143, 7, 2
4,1, 7
7,21.0245,17.5,21, 5,60,25.1,21,14,60
1,VANCOUVER INTL AP ANN HTG 99.6% CONDNS DB,  49.20,-123.18,  -8.00,   4.30
2,1,12,21, 0, 1, 0.00,10.00,WinterDesignDay
8,-6.1
10,888243.3975740699
321,5327157.566912255
2,1,12,21, 0, 1,10.00,20.00,WinterDesignDay
8,-6.1
10,888243.3975740699
321,5372717.57625435
2,1,12,21, 0, 1,20.00,30.00,WinterDesignDay
8,-6.1
10,888243.3975740699
321,5988720.067953328
2,1,12,21, 0, 1,30.00,40.00,WinterDesignDay
8,-6.1
10,888243.3975740699
321,5461419.017801359
2,1,12,21, 0, 1,40.00,50.00,WinterDesignDay
8,-6.1
10,888243.3975740699
321,6079298.730770131
2,1,12,21, 0, 1,50.00,60.00,WinterDesignDay
8,-6.1
10,888243.3975740699
321,5547072.090379953
2,1,12,21, 0, 1, 0.00,60.00,WinterDesignDay
555,14.344525663144474
595,17.999969526536064
635,18.000047006786898
675,18.00003380333953
715,18.000050853953053
755,18.00003103788735
2,1,12,21, 0, 2, 0.00,10.00,WinterDesignDay
8,-6.1
10,888243.3975740699
321,6166601.531102968
2,1,12,21, 0, 2,10.00,20.00,WinterDesignDay
8,-6.1
10,888243.3975740699
321,5629757.835080604
2,1,12,21, 0, 2,20.00,30.00,WinterDesignDay
8,-6.1
10,888243.3975740699
321,5795813.3690271549
2,1,12,21, 0, 2,30.00,40.00,WinterDesignDay
8,-6.1
10,888243.3975740699
321,6155006.913991248
2,1,12,21, 0, 2,40.00,50.00,WinterDesignDay
8,-6.1
10,888243.3975740699
321,5748210.901052849
2,1,12,21, 0, 2,50.00,60.00,WinterDesignDay
8,-6.1
10,888243.3975740699
321,6361738.021908047
2,1,12,21, 0, 2, 0.00,60.00,WinterDesignDay
555,14.15966188336823
595,17.99998217540759
635,18.000039296676957
675,18.00002900246037
715,18.000042009048884
755,18.00002675758457
2,1,12,21, 0, 3, 0.00,10.00,WinterDesignDay
8,-6.1
10,888243.3975740699
321,5827235.589675602
2,1,12,21, 0, 3,10.00,20.00,WinterDesignDay
8,-6.1
10,888243.3975740699
321,6443431.67931084
2,1,12,21, 0, 3,20.00,30.00,WinterDesignDay
8,-6.1
10,888243.3975740699
321,5905168.338847312
2,1,12,21, 0, 3,30.00,40.00,WinterDesignDay
8,-6.1
10,888243.3975740699
321,6213990.915350842
2,1,12,21, 0, 3,40.00,50.00,WinterDesignDay
8,-6.1
10,888243.3975740699
321,6285220.388169704
2,1,12,21, 0, 3,50.00,60.00,WinterDesignDay
8,-6.1
10,888243.3975740699
321,6018977.806064217
2,1,12,21, 0, 3, 0.00,60.00,WinterDesignDay
555,13.983853491469239
595,17.999989762167574
635,18.000033699373707
675,18.000025359591726
715,18.000036021016688
755,18.000023510793473
2,1,12,21, 0, 4, 0.00,10.00,WinterDesignDay
8,-6.1
10,888243.3975740699
321,6629200.723340137
2,1,12,21, 0, 4,10.00,20.00,WinterDesignDay
8,-6.1
10,888243.3975740699
321,6092692.389691437
2,1,12,21, 0, 4,20.00,30.00,WinterDesignDay
8,-6.1
10,888243.3975740699
321,6705847.43385754
2,1,12,21, 0, 4,30.00,40.00,WinterDesignDay
8,-6.1
10,888243.3975740699
321,6167193.668155278
2,1,12,21, 0, 4,40.00,50.00,WinterDesignDay
8,-6.1
10,888243.3975740699
321,6609332.193555969
2,1,12,21, 0, 4,50.00,60.00,WinterDesignDay
8,-6.1
10,888243.3975740699
321,6414076.836105542
2,1,12,21, 0, 4, 0.00,60.00,WinterDesignDay
555,13.819295232827349
595,17.999994392156024
635,18.000029602921054
675,18.000022500944636
715,18.000031788824886
755,18.000020929140296
2,1,12,21, 0, 5, 0.00,10.00,WinterDesignDay
8,-6.1
10,888243.3975740699
321,6279548.250424983
2,1,12,21, 0, 5,10.00,20.00,WinterDesignDay
8,-6.1
10,888243.3975740699
321,6889096.687819993
2,1,12,21, 0, 5,20.00,30.00,WinterDesignDay
8,-6.1
10,888243.3975740699
321,6353888.221511319
2,1,12,21, 0, 5,30.00,40.00,WinterDesignDay
8,-6.1
10,888243.3975740699
321,6966300.388277847
2,1,12,21, 0, 5,40.00,50.00,WinterDesignDay
8,-6.1
10,888243.3975740699
321,6427152.004816882
2,1,12,21, 0, 5,50.00,60.00,WinterDesignDay
8,-6.1
10,888243.3975740699
321,6994502.738470827
2,1,12,21, 0, 5, 0.00,60.00,WinterDesignDay
555,13.665030241089454
595,17.999997847850037
635,18.000026681177219
675,18.00002028483497
715,18.000028898232963
755,18.000018891319017
2,1,12,21, 0, 6, 0.00,10.00,WinterDesignDay
8,-6.1
10,888243.3975740699
321,6544811.540372793
2,1,12,21, 0, 6,10.00,20.00,WinterDesignDay
8,-6.1
10,888243.3975740699
321,6533407.291439041
2,1,12,21, 0, 6,20.00,30.00,WinterDesignDay
8,-6.1
10,888243.3975740699
321,7140137.764675568
2,1,12,21, 0, 6,30.00,40.00,WinterDesignDay
8,-6.1
10,888243.3975740699
321,6603852.687902456
2,1,12,21, 0, 6,40.00,50.00,WinterDesignDay
8,-6.1
10,888243.3975740699
321,7213707.350117149
2,1,12,21, 0, 6,50.00,60.00,WinterDesignDay
8,-6.1
10,888243.3975740699
321,6673656.799333384
2,1,12,21, 0, 6, 0.00,60.00,WinterDesignDay
555,13.520389896044343
595,18.000000208958356
635,18.000024679952984
675,18.000018602733289
715,18.000027041810087
755,18.000017309959288
2,1,12,21, 0, 7, 0.00,10.00,WinterDesignDay
8,-6.1
10,936282.4594957392
321,15495979.886452876
2,1,12,21, 0, 7,10.00,20.00,WinterDesignDay
8,-6.1
10,888243.3975740699
321,7214633.376927405
2,1,12,21, 0, 7,20.00,30.00,WinterDesignDay
8,-6.1
10,888243.3975740699
321,12881357.022729638
2,1,12,21, 0, 7,30.00,40.00,WinterDesignDay
8,-6.1
10,888243.3975740699
321,11981630.652603941
2,1,12,21, 0, 7,40.00,50.00,WinterDesignDay
8,-6.1
10,888243.3975740699
321,11247999.525505178
2,1,12,21, 0, 7,50.00,60.00,WinterDesignDay
8,-6.1
10,888243.3975740699
321,11707455.166694323
2,1,12,21, 0, 7, 0.00,60.00,WinterDesignDay
555,13.394106160680613
595,19.97362163277592
635,19.978160975757726
675,20.00069845746801
715,19.973148244141105
755,20.006812455035559
2,1,12,21, 0, 8, 0.00,10.00,WinterDesignDay
8,-6.1
10,1800769.1012981993
321,20681132.243964986
2,1,12,21, 0, 8,10.00,20.00,WinterDesignDay
8,-6.1
10,1761719.793144428
321,12705405.894145487
2,1,12,21, 0, 8,20.00,30.00,WinterDesignDay
8,-6.1
10,1761719.793144428
321,16949285.85792188
2,1,12,21, 0, 8,30.00,40.00,WinterDesignDay
8,-6.1
10,1761719.793144428
321,16104414.016371619
2,1,12,21, 0, 8,40.00,50.00,WinterDesignDay
8,-6.1
10,1761719.793144428
321,15633903.376512232
2,1,12,21, 0, 8,50.00,60.00,WinterDesignDay
8,-6.1
10,1761719.793144428
321,15046052.706682178
2,1,12,21, 0, 8, 0.00,60.00,WinterDesignDay
555,13.335903302448968
595,21.964758958018483
635,21.973373429686025
675,21.98765128961547
715,21.968460075709847
755,21.9935216552043
2,1,12,21, 0, 9, 0.00,10.00,WinterDesignDay
8,-6.1
10,5085532.184802674
321,13220374.50899732
2,1,12,21, 0, 9,10.00,20.00,WinterDesignDay
8,-6.1
10,5085532.184802674
321,12810711.975391226
2,1,12,21, 0, 9,20.00,30.00,WinterDesignDay
8,-6.1
10,5085532.184802674
321,12547973.277158184
2,1,12,21, 0, 9,30.00,40.00,WinterDesignDay
8,-6.1
10,5085532.184802674
321,12332191.52499349
2,1,12,21, 0, 9,40.00,50.00,WinterDesignDay
8,-6.1
10,5085532.184802674
321,12035624.570874166
2,1,12,21, 0, 9,50.00,60.00,WinterDesignDay
8,-6.1
10,5085532.184802674
321,11856189.266370943
2,1,12,21, 0, 9, 0.00,60.00,WinterDesignDay
555,13.403746677792775
595,22.00014552266323
635,22.000264136060605
675,22.000196569881508
715,22.000296421467288
755,22.000179458427764
2,1,12,21, 0,10, 0.00,10.00,WinterDesignDay
8,-6.1
10,5683803.6886179889
321,11156849.031460429
2,1,12,21, 0,10,10.00,20.00,WinterDesignDay
8,-6.1
10,5683803.6886179889
321,10995133.603297513
2,1,12,21, 0,10,20.00,30.00,WinterDesignDay
8,-6.1
10,5683803.6886179889
321,10865063.637370052
2,1,12,21, 0,10,30.00,40.00,WinterDesignDay
8,-6.1
10,5683803.6886179889
321,10748984.557202457
2,1,12,21, 0,10,40.00,50.00,WinterDesignDay
8,-6.1
10,5683803.6886179889
321,10644231.26066108
2,1,12,21, 0,10,50.00,60.00,WinterDesignDay
8,-6.1
10,5683803.6886179889
321,10548364.00235809
2,1,12,21, 0,10, 0.00,60.00,WinterDesignDay
555,13.563493703095008
595,22.00016028840129
635,22.00039608501359
675,22.00027251662301
715,22.00045967044527
755,22.000244586456746