Program Version,EnergyPlus, Version 8.9.0-eba93e8e1b, YMD=2018.09.18 16:54
1,5,Environment Title[],Latitude[deg],Longitude[deg],Time Zone[],Elevation[m]
2,8,Day of Simulation[],Month[],Day of Month[],DST Indicator[1=yes 0=no],Hour[],StartMinute[],EndMinute[],DayType
3,5,Cumulative Day of Simulation[],Month[],Day of Month[],DST Indicator[1=yes 0=no],DayType  ! When Daily Report Variables Requested
4,2,Cumulative Days of Simulation[],Month[]  ! When Monthly Report Variables Requested
5,1,Cumulative Days of Simulation[] ! When Run Period Report Variables Requested
6,1,Calendar Year of Simulation[] ! When Annual Report Variables Requested
7,9,Environment,Site Outdoor Air Drybulb Temperature [C] !Monthly [Value,Min,Day,Hour,Minute,Max,Day,Hour,Minute]
8,1,Environment,Site Outdoor Air Wetbulb Temperature [C] !TimeStep
243,1,ATTIC ZN,Zone Air Temperature [C] !Hourly
244,7,ATTIC ZN,Zone Air Relative Humidity [%] !Daily [Value,Min,Hour,Minute,Max,Hour,Minute]
283,1,DINING ZN,Zone Air Temperature [C] !Hourly
284,7,DINING ZN,Zone Air Relative Humidity [%] !Daily [Value,Min,Hour,Minute,Max,Hour,Minute]
323,1,KITCHEN ZN,Zone Air Temperature [C] !Hourly
324,7,KITCHEN ZN,Zone Air Relative Humidity [%] !Daily [Value,Min,Hour,Minute,Max,Hour,Minute]
10,1,Electricity:Facility [J] !TimeStep
474,1,DistrictCooling:Facility [J] !TimeStep
437,1,DistrictHeating:Facility [J] !TimeStep
End of Data Dictionary
1,VANCOUVER INTL AP ANN CLG .4% CONDNS DB=>MWB,  49.20,-123.18,  -8.00,   4.30
2,1, 7,21, 0, 1, 0.00,10.00,SummerDesignDay
8,16.352199953652215
10,3868232.265912153
437,0.0
474,1333725.9858651148
2,1, 7,21, 0, 1,10.00,20.00,SummerDesignDay
8,16.3252576442975
10,3868232.265912153
437,0.0
474,1315273.6470493524
2,1, 7,21, 0, 1,20.00,30.00,SummerDesignDay
8,16.2982938306074
10,3868232.265912153
437,0.0
474,1297150.357285796
2,1, 7,21, 0, 1,30.00,40.00,SummerDesignDay
8,16.271298954341999
10,3868232.265912153
437,0.0
474,1279108.8376761622
2,1, 7,21, 0, 1,40.00,50.00,SummerDesignDay
8,16.244276700157607
10,3868232.265912153
437,0.0
474,1261190.2105630146
2,1, 7,21, 0, 1,50.00,60.00,SummerDesignDay
8,16.217228272321866
10,3868232.265912153
437,0.0
474,1243398.5033351496
2,1, 7,21, 0, 1, 0.00,60.00,SummerDesignDay
243,25.066502366568899
283,22.610107065033224
323,24.000000000000055
2,1, 7,21, 0, 2, 0.00,10.00,SummerDesignDay
8,16.199184445315237
10,2149017.9255067517
437,0.0
474,0.0
2,1, 7,21, 0, 2,10.00,20.00,SummerDesignDay
8,16.181123823551326
10,2149017.9255067517
437,0.0
474,0.0
2,1, 7,21, 0, 2,20.00,30.00,SummerDesignDay
8,16.163056857826836
10,2149017.9255067517
437,260898.60880987606
474,0.0
2,1, 7,21, 0, 2,30.00,40.00,SummerDesignDay
8,16.144971888810827
10,2149017.9255067517
437,248695.67948687898
474,0.0
2,1, 7,21, 0, 2,40.00,50.00,SummerDesignDay
8,16.12688104636919
10,2149017.9255067517
437,369444.2395583723
474,0.0
2,1, 7,21, 0, 2,50.00,60.00,SummerDesignDay
8,16.108773026303486
10,2149017.9255067517
437,478825.9286354283
474,0.0
2,1, 7,21, 0, 2, 0.00,60.00,SummerDesignDay
243,24.85622336327637
283,22.058391525309998
323,24.45115737263265
2,1, 7,21, 0, 3, 0.00,10.00,SummerDesignDay
8,16.095187997840726
10,429803.5851013504
437,0.0
474,0.0
2,1, 7,21, 0, 3,10.00,20.00,SummerDesignDay
8,16.08159647937563
10,429803.5851013504
437,0.0
474,0.0
2,1, 7,21, 0, 3,20.00,30.00,SummerDesignDay
8,16.067992103020477
10,429803.5851013504
437,0.0
474,0.0
2,1, 7,21, 0, 3,30.00,40.00,SummerDesignDay
8,16.054387489767213
10,429803.5851013504
437,0.0
474,0.0
2,1, 7,21, 0, 3,40.00,50.00,SummerDesignDay
8,16.040775235496488
10,429803.5851013504
437,0.0
474,0.0
2,1, 7,21, 0, 3,50.00,60.00,SummerDesignDay
8,16.027151463515208
10,429803.5851013504
437,0.0
474,0.0
2,1, 7,21, 0, 3, 0.00,60.00,SummerDesignDay
243,24.64071553454474
283,21.435888083534079
323,23.743803347116374
2,1, 7,21, 0, 4, 0.00,10.00,SummerDesignDay
8,16.013526309671386
10,429803.5851013504
437,0.0
474,0.0
2,1, 7,21, 0, 4,10.00,20.00,SummerDesignDay
8,15.999888590638458
10,429803.5851013504
437,0.0
474,0.0
2,1, 7,21, 0, 4,20.00,30.00,SummerDesignDay
8,15.986249958378048
10,429803.5851013504
437,0.0
474,0.0
2,1, 7,21, 0, 4,30.00,40.00,SummerDesignDay
8,15.972604339068287
10,429803.5851013504
437,0.0
474,0.0
2,1, 7,21, 0, 4,40.00,50.00,SummerDesignDay
8,15.958946698244901
10,429803.5851013504
437,0.0
474,0.0
2,1, 7,21, 0, 4,50.00,60.00,SummerDesignDay
8,15.945287702730492
10,429803.5851013504
437,0.0
474,0.0
2,1, 7,21, 0, 4, 0.00,60.00,SummerDesignDay
243,24.36572018732389
283,21.032750017221344
323,23.22718875673903
2,1, 7,21, 0, 5, 0.00,10.00,SummerDesignDay
8,15.936177990809899
10,429803.5851013504
437,0.0
474,0.0
2,1, 7,21, 0, 5,10.00,20.00,SummerDesignDay
8,15.92705949178547
10,429803.5851013504
437,0.0
474,0.0
2,1, 7,21, 0, 5,20.00,30.00,SummerDesignDay
8,15.917943710706878
10,429803.5851013504
437,0.0
474,0.0
2,1, 7,21, 0, 5,30.00,40.00,SummerDesignDay
8,15.908825155859729
10,429803.5851013504
437,0.0
474,0.0
2,1, 7,21, 0, 5,40.00,50.00,SummerDesignDay
8,15.89970321878413
10,429803.5851013504
437,0.0
474,0.0
2,1, 7,21, 0, 5,50.00,60.00,SummerDesignDay
8,15.89058503181825
10,429803.5851013504
437,0.0
474,0.0
2,1, 7,21, 0, 5, 0.00,60.00,SummerDesignDay
243,24.11354220727242
283,20.804849627719034
323,22.962796754810513
2,1, 7,21, 0, 6, 0.00,10.00,SummerDesignDay
8,15.89970321878413
10,429803.5851013504
437,0.0
474,0.0
2,1, 7,21, 0, 6,10.00,20.00,SummerDesignDay
8,15.908825155859729
10,429803.5851013504
437,0.0
474,0.0
2,1, 7,21, 0, 6,20.00,30.00,SummerDesignDay
8,15.917943710706878
10,429803.5851013504
437,0.0
474,0.0
2,1, 7,21, 0, 6,30.00,40.00,SummerDesignDay
8,15.92705949178547
10,429803.5851013504
437,0.0
474,0.0
2,1, 7,21, 0, 6,40.00,50.00,SummerDesignDay
8,15.936177990809899
10,429803.5851013504
437,0.0
474,0.0
2,1, 7,21, 0, 6,50.00,60.00,SummerDesignDay
8,15.945287702730492
10,429803.5851013504
437,0.0
474,0.0
2,1, 7,21, 0, 6, 0.00,60.00,SummerDesignDay
243,24.269950971355145
283,21.023008970942393
323,22.804968129689447
2,1, 7,21, 0, 7, 0.00,10.00,SummerDesignDay
8,15.977153459569559
10,429803.5851013504
437,0.0
474,0.0
2,1, 7,21, 0, 7,10.00,20.00,SummerDesignDay
8,16.00898303120887
10,429803.5851013504
437,0.0
474,0.0
2,1, 7,21, 0, 7,20.00,30.00,SummerDesignDay
8,16.040775235496488
10,429803.5851013504
437,0.0
474,0.0
2,1, 7,21, 0, 7,30.00,40.00,SummerDesignDay
8,16.072525945973774
10,429803.5851013504
437,0.0
474,0.0
2,1, 7,21, 0, 7,40.00,50.00,SummerDesignDay
8,16.104245538982189
10,429803.5851013504
437,0.0
474,0.0
2,1, 7,21, 0, 7,50.00,60.00,SummerDesignDay
8,16.135928228205914
10,429803.5851013504
437,0.0
474,0.0
2,1, 7,21, 0, 7, 0.00,60.00,SummerDesignDay
243,24.61787757611449
283,21.468080796087368
323,22.800982936789514
2,1, 7,21, 0, 8, 0.00,10.00,SummerDesignDay
8,16.212718231329928
10,429803.5851013504
437,0.0
474,0.0
2,1, 7,21, 0, 8,10.00,20.00,SummerDesignDay
8,16.289295095914626
10,429803.5851013504
437,0.0
474,0.0
2,1, 7,21, 0, 8,20.00,30.00,SummerDesignDay
8,16.365658732225424
10,429803.5851013504
437,0.0
474,0.0
2,1, 7,21, 0, 8,30.00,40.00,SummerDesignDay
8,16.44181049723187
10,429803.5851013504
437,0.0
474,0.0
2,1, 7,21, 0, 8,40.00,50.00,SummerDesignDay
8,16.517756147764346
10,429803.5851013504
437,0.0
474,0.0
2,1, 7,21, 0, 8,50.00,60.00,SummerDesignDay
8,16.593486849767513
10,429803.5851013504
437,0.0
474,0.0
2,1, 7,21, 0, 8, 0.00,60.00,SummerDesignDay
243,25.187214734429558
283,22.07542570362382
323,22.990060818914633
2,1, 7,21, 0, 9, 0.00,10.00,SummerDesignDay
8,16.677878063199516
10,429803.5851013504
437,0.0
474,0.0
2,1, 7,21, 0, 9,10.00,20.00,SummerDesignDay
8,16.76200946235728
10,429803.5851013504
437,0.0
474,0.0
2,1, 7,21, 0, 9,20.00,30.00,SummerDesignDay
8,16.845887031033866
10,429803.5851013504
437,0.0
474,0.0
2,1, 7,21, 0, 9,30.00,40.00,SummerDesignDay
8,16.929502190751337
10,429803.5851013504
437,0.0
474,0.0
2,1, 7,21, 0, 9,40.00,50.00,SummerDesignDay
8,17.012861351115086
10,429803.5851013504
437,0.0
474,0.0
2,1, 7,21, 0, 9,50.00,60.00,SummerDesignDay
8,17.09597057951627
10,429803.5851013504
437,0.0
474,0.0
2,1, 7,21, 0, 9, 0.00,60.00,SummerDesignDay
243,25.956026622056617
283,22.875160059917879
323,23.373533133103384
2,1, 7,21, 0,10, 0.00,10.00,SummerDesignDay
8,17.17011313897211
10,2149017.9255067517
437,0.0
474,25938.374357191457
2,1, 7,21, 0,10,10.00,20.00,SummerDesignDay
8,17.24405314489198
10,2149017.9255067517
437,0.0
474,473183.5957593537
2,1, 7,21, 0,10,20.00,30.00,SummerDesignDay
8,17.317792342150307
10,2149017.9255067517
437,0.0
474,557276.572179367
2,1, 7,21, 0,10,30.00,40.00,SummerDesignDay
8,17.391330750865035
10,2149017.9255067517
437,0.0
474,1052049.4769834779
2,1, 7,21, 0,10,40.00,50.00,SummerDesignDay
8,17.464669750704549
10,2149017.9255067517
437,0.0
474,1435263.721484524
2,1, 7,21, 0,10,50.00,60.00,SummerDesignDay
8,17.537810589481837
10,2149017.9255067517
437,0.0
474,1834672.5089755753
2,1, 7,21, 0,10, 0.00,60.00,SummerDesignDay
243,26.709750177397625
283,23.82726852899131
323,23.97662811784136
2,1, 7,21, 0,11, 0.00,10.00,SummerDesignDay
8,17.60218312883583
10,3008625.0957094526
437,0.0
474,2948831.8761336498
2,1, 7,21, 0,11,10.00,20.00,SummerDesignDay
8,17.666401914182499
10,3008625.0957094526
437,0.0
474,3356357.8768714398
2,1, 7,21, 0,11,20.00,30.00,SummerDesignDay
8,17.73046886665172
10,3008625.0957094526
437,0.0
474,3716389.6480960755
2,1, 7,21, 0,11,30.00,40.00,SummerDesignDay
8,17.794377337180749
10,3008625.0957094526
437,0.0
474,4070421.2258276708
2,1, 7,21, 0,11,40.00,50.00,SummerDesignDay
8,17.858140091722729
10,3008625.0957094526
437,0.0
474,4414075.144385591
2,1, 7,21, 0,11,50.00,60.00,SummerDesignDay
8,17.921751671476274
10,3008625.0957094526
437,0.0
474,4763448.225780987
2,1, 7,21, 0,11, 0.00,60.00,SummerDesignDay
243,27.52219236590828
283,23.999940753064697
323,23.99999999695103
2,1, 7,21, 0,12, 0.00,10.00,SummerDesignDay
8,17.964074041059168
10,3868232.265912153
437,0.0
474,6161335.950158462
2,1, 7,21, 0,12,10.00,20.00,SummerDesignDay
8,18.00633512830953
10,3868232.265912153
437,0.0
474,6500584.792072654
2,1, 7,21, 0,12,20.00,30.00,SummerDesignDay
8,18.048524057857607
10,3868232.265912153
437,0.0
474,6803471.709242302
2,1, 7,21, 0,12,30.00,40.00,SummerDesignDay
8,18.090647246552004
10,3868232.265912153
437,0.0
474,7103709.809711315
2,1, 7,21, 0,12,40.00,50.00,SummerDesignDay
8,18.132703529720616
10,3868232.265912153
437,0.0
474,7404162.160171283
2,1, 7,21, 0,12,50.00,60.00,SummerDesignDay
8,18.17469964536842
10,3868232.265912153
437,0.0
474,7699885.278685059
2,1, 7,21, 0,12, 0.00,60.00,SummerDesignDay
243,28.14009424700359
283,23.99999999253426
323,23.999999999999984
2,1, 7,21, 0,13, 0.00,10.00,SummerDesignDay
8,18.208245339828517
10,3868232.265912153
437,0.0
474,8746089.432531082
2,1, 7,21, 0,13,10.00,20.00,SummerDesignDay
8,18.241744233723979
10,3868232.265912153
437,0.0
474,9006964.694260803
2,1, 7,21, 0,13,20.00,30.00,SummerDesignDay
8,18.2752069112248
10,3868232.265912153
437,0.0
474,9255197.848691203
2,1, 7,21, 0,13,30.00,40.00,SummerDesignDay
8,18.30862693969058
10,3868232.265912153
437,0.0
474,9496547.212318276
2,1, 7,21, 0,13,40.00,50.00,SummerDesignDay
8,18.342005526737105
10,3868232.265912153
437,0.0
474,9729559.546285766
2,1, 7,21, 0,13,50.00,60.00,SummerDesignDay
8,18.375341817792614
10,3868232.265912153
437,0.0
474,9959681.01944825
2,1, 7,21, 0,13, 0.00,60.00,SummerDesignDay
243,28.577262756039038
283,23.99999999999909
323,24.000000000000044
2,1, 7,21, 0,14, 0.00,10.00,SummerDesignDay
8,18.39615811087369
10,3868232.265912153
437,0.0
474,9931370.331549066
2,1, 7,21, 0,14,10.00,20.00,SummerDesignDay
8,18.416957955881725
10,3868232.265912153
437,0.0
474,10102980.573240707
2,1, 7,21, 0,14,20.00,30.00,SummerDesignDay
8,18.43773680274513
10,3868232.265912153
437,0.0
474,10287424.14267318
2,1, 7,21, 0,14,30.00,40.00,SummerDesignDay
8,18.458504433044504
10,3868232.265912153
437,0.0
474,10484727.236824727
2,1, 7,21, 0,14,40.00,50.00,SummerDesignDay
8,18.479250383250578
10,3868232.265912153
437,0.0
474,10693158.035791513
2,1, 7,21, 0,14,50.00,60.00,SummerDesignDay
8,18.499985692685468
10,3868232.265912153
437,0.0
474,10909928.588104859
2,1, 7,21, 0,14, 0.00,60.00,SummerDesignDay
243,28.839679791343604
283,24.00000000000001
323,24.0
2,1, 7,21, 0,15, 0.00,10.00,SummerDesignDay
8,18.499985692685468
10,3868232.265912153
437,0.0
474,10432318.064977892
2,1, 7,21, 0,15,10.00,20.00,SummerDesignDay
8,18.499985692685468
10,3868232.265912153
437,0.0
474,10546353.273957748
2,1, 7,21, 0,15,20.00,30.00,SummerDesignDay
8,18.499985692685468
10,3868232.265912153
437,0.0
474,10675297.704300659
2,1, 7,21, 0,15,30.00,40.00,SummerDesignDay
8,18.499985692685468
10,3868232.265912153
437,0.0
474,10800252.713398232
2,1, 7,21, 0,15,40.00,50.00,SummerDesignDay
8,18.499985692685468
10,3868232.265912153
437,0.0
474,10917197.141609056
2,1, 7,21, 0,15,50.00,60.00,SummerDesignDay
8,18.499985692685468
10,3868232.265912153
437,0.0
474,11024867.68512949
2,1, 7,21, 0,15, 0.00,60.00,SummerDesignDay
243,28.914867196570794
283,24.0
323,24.00000000000003
2,1, 7,21, 0,16, 0.00,10.00,SummerDesignDay
8,18.475102970177127
10,3868232.265912153
437,0.0
474,10393433.589718856
2,1, 7,21, 0,16,10.00,20.00,SummerDesignDay
8,18.450201543271235
10,3868232.265912153
437,0.0
474,10338046.407423214
2,1, 7,21, 0,16,20.00,30.00,SummerDesignDay
8,18.425271777286019
10,3868232.265912153
437,0.0
474,10285425.022562258
2,1, 7,21, 0,16,30.00,40.00,SummerDesignDay
8,18.40031825447926
10,3868232.265912153
437,0.0
474,10225847.952986695
2,1, 7,21, 0,16,40.00,50.00,SummerDesignDay
8,18.375341817792614
10,3868232.265912153
437,0.0
474,10160569.058582293
2,1, 7,21, 0,16,50.00,60.00,SummerDesignDay
8,18.350347174046595
10,3868232.265912153
437,0.0
474,10102260.210472256
2,1, 7,21, 0,16, 0.00,60.00,SummerDesignDay
243,28.786404266855276
283,23.99999999999996
323,24.00000000000003
2,1, 7,21, 0,17, 0.00,10.00,SummerDesignDay
8,18.316978860635527
10,3868232.265912153
437,0.0
474,9993099.310446872
2,1, 7,21, 0,17,10.00,20.00,SummerDesignDay
8,18.2835693630182
10,3868232.265912153
437,0.0
474,9877900.303163708
2,1, 7,21, 0,17,20.00,30.00,SummerDesignDay
8,18.250118050746214
10,3868232.265912153
437,0.0
474,9756605.03215542
2,1, 7,21, 0,17,30.00,40.00,SummerDesignDay
8,18.216624325548968
10,3868232.265912153
437,0.0
474,9626978.725336284
2,1, 7,21, 0,17,40.00,50.00,SummerDesignDay
8,18.183088861944893
10,3868232.265912153
437,0.0
474,9487629.352688823
2,1, 7,21, 0,17,50.00,60.00,SummerDesignDay
8,18.149510843493635
10,3868232.265912153
437,0.0
474,9338964.773466018
2,1, 7,21, 0,17, 0.00,60.00,SummerDesignDay
243,28.451389976208117
283,24.000000000000055
323,24.000000000000058
2,1, 7,21, 0,18, 0.00,10.00,SummerDesignDay
8,18.10748062898272
10,3868232.265912153
437,0.0
474,9343877.616250374
2,1, 7,21, 0,18,10.00,20.00,SummerDesignDay
8,18.065379091048376
10,3868232.265912153
437,0.0
474,9144664.722741882
2,1, 7,21, 0,18,20.00,30.00,SummerDesignDay
8,18.023216461654344
10,3868232.265912153
437,0.0
474,8929453.366246077
2,1, 7,21, 0,18,30.00,40.00,SummerDesignDay
8,17.980987605947548
10,3868232.265912153
437,0.0
474,8698229.763739732
2,1, 7,21, 0,18,40.00,50.00,SummerDesignDay
8,17.93869205826644
10,3868232.265912153
437,0.0
474,8453446.712579322
2,1, 7,21, 0,18,50.00,60.00,SummerDesignDay
8,17.89632405402092
10,3868232.265912153
437,0.0
474,8192145.787165623
2,1, 7,21, 0,18, 0.00,60.00,SummerDesignDay
243,27.935255916468809
283,23.999999999999998
323,24.000000000000015
2,1, 7,21, 0,19, 0.00,10.00,SummerDesignDay
8,17.832657261722244
10,3868232.265912153
437,0.0
474,8412776.610688758
2,1, 7,21, 0,19,10.00,20.00,SummerDesignDay
8,17.768833985856515
10,3868232.265912153
437,0.0
474,8031898.872503897
2,1, 7,21, 0,19,20.00,30.00,SummerDesignDay
8,17.704859478274899
10,3868232.265912153
437,0.0
474,7624840.218450621
2,1, 7,21, 0,19,30.00,40.00,SummerDesignDay
8,17.640731707059819
10,3868232.265912153
437,0.0
474,7198383.641213249
2,1, 7,21, 0,19,40.00,50.00,SummerDesignDay
8,17.576451319157326
10,3868232.265912153
437,0.0
474,6752246.741459126
2,1, 7,21, 0,19,50.00,60.00,SummerDesignDay
8,17.512016904905339
10,3868232.265912153
437,0.0
474,6285855.724131488
2,1, 7,21, 0,19, 0.00,60.00,SummerDesignDay
243,27.26643516336668
283,24.000000000000015
323,24.000000000000044
2,1, 7,21, 0,20, 0.00,10.00,SummerDesignDay
8,17.464669750704549
10,3868232.265912153
437,0.0
474,6484543.957389472
2,1, 7,21, 0,20,10.00,20.00,SummerDesignDay
8,17.417239543286124
10,3868232.265912153
437,0.0
474,6077755.057772398
2,1, 7,21, 0,20,20.00,30.00,SummerDesignDay
8,17.369720602565694
10,3868232.265912153
437,0.0
474,5637221.627390824
2,1, 7,21, 0,20,30.00,40.00,SummerDesignDay
8,17.32212315858905
10,3868232.265912153
437,0.0
474,5163675.626560578
2,1, 7,21, 0,20,40.00,50.00,SummerDesignDay
8,17.27444149556641
10,3868232.265912153
437,0.0
474,4724998.8243648749
2,1, 7,21, 0,20,50.00,60.00,SummerDesignDay
8,17.22667133087272
10,3868232.265912153
437,0.0
474,4318381.513689552
2,1, 7,21, 0,20, 0.00,60.00,SummerDesignDay
243,26.648283320499915
283,24.000000000000019
323,24.000000000000069
2,1, 7,21, 0,21, 0.00,10.00,SummerDesignDay
8,17.187526559563478
10,3868232.265912153
437,0.0
474,3962725.674043917
2,1, 7,21, 0,21,10.00,20.00,SummerDesignDay
8,17.14832575016431
10,3868232.265912153
437,0.0
474,3690537.548298065
2,1, 7,21, 0,21,20.00,30.00,SummerDesignDay
8,17.109067882849585
10,3868232.265912153
437,0.0
474,3445684.4993789375
2,1, 7,21, 0,21,30.00,40.00,SummerDesignDay
8,17.06975316359479
10,3868232.265912153
437,0.0
474,3209073.2079767074
2,1, 7,21, 0,21,40.00,50.00,SummerDesignDay
8,17.030381184961106
10,3868232.265912153
437,0.0
474,2977444.004580135
2,1, 7,21, 0,21,50.00,60.00,SummerDesignDay
8,16.990952199245954
10,3868232.265912153
437,0.0
474,2749165.6068762026
2,1, 7,21, 0,21, 0.00,60.00,SummerDesignDay
243,26.010162008389459
283,24.000000000000026
323,23.999999999999987
2,1, 7,21, 0,22, 0.00,10.00,SummerDesignDay
8,16.951466381705289
10,3868232.265912153
437,0.0
474,2523119.5154303887
2,1, 7,21, 0,22,10.00,20.00,SummerDesignDay
8,16.91191764298267
10,3868232.265912153
437,0.0
474,2298560.8136745209
2,1, 7,21, 0,22,20.00,30.00,SummerDesignDay
8,16.872316270901277
10,3868232.265912153
437,0.0
474,2075002.9050420847
2,1, 7,21, 0,22,30.00,40.00,SummerDesignDay
8,16.832657583970926
10,3868232.265912153
437,0.0
474,1852123.6687698935
2,1, 7,21, 0,22,40.00,50.00,SummerDesignDay
8,16.792940913271754
10,3868232.265912153
437,0.0
474,1813957.3525349289
2,1, 7,21, 0,22,50.00,60.00,SummerDesignDay
8,16.75316676384634
10,3868232.265912153
437,0.0
474,1786610.319762095
2,1, 7,21, 0,22, 0.00,60.00,SummerDesignDay
243,25.680525596946553
283,23.980658738380929
323,24.00000000000006
2,1, 7,21, 0,23, 0.00,10.00,SummerDesignDay
8,16.722189413934204
10,3868232.265912153
437,0.0
474,1669878.828070209
2,1, 7,21, 0,23,10.00,20.00,SummerDesignDay
8,16.691177401191405
10,3868232.265912153
437,0.0
474,1643726.7869057959
2,1, 7,21, 0,23,20.00,30.00,SummerDesignDay
8,16.660129834097096
10,3868232.265912153
437,0.0
474,1618238.539059499
2,1, 7,21, 0,23,30.00,40.00,SummerDesignDay
8,16.62905234664031
10,3868232.265912153
437,0.0
474,1592344.115536731
2,1, 7,21, 0,23,40.00,50.00,SummerDesignDay
8,16.597934345516849
10,3868232.265912153
437,0.0
474,1566302.7067707426
2,1, 7,21, 0,23,50.00,60.00,SummerDesignDay
8,16.566780836645607
10,3868232.265912153
437,0.0
474,1540911.2827893764
2,1, 7,21, 0,23, 0.00,60.00,SummerDesignDay
243,25.46972123064869
283,23.54086902537459
323,24.000000000000015
2,1, 7,21, 0,24, 0.00,10.00,SummerDesignDay
8,16.53559150074222
10,3868232.265912153
437,0.0
474,1475233.2058065152
2,1, 7,21, 0,24,10.00,20.00,SummerDesignDay
8,16.504366423325597
10,3868232.265912153
437,0.0
474,1454836.835463615
2,1, 7,21, 0,24,20.00,30.00,SummerDesignDay
8,16.473106420779854
10,3868232.265912153
437,0.0
474,1434781.775468554
2,1, 7,21, 0,24,30.00,40.00,SummerDesignDay
8,16.44181049723187
10,3868232.265912153
437,0.0
474,1414730.509544174
2,1, 7,21, 0,24,40.00,50.00,SummerDesignDay
8,16.410483695355663
10,3868232.265912153
437,0.0
474,1394850.018636123
2,1, 7,21, 0,24,50.00,60.00,SummerDesignDay
8,16.379116168301004
10,3868232.265912153
437,0.0
474,1375176.7284340175
2,1, 7,21, 0,24, 0.00,60.00,SummerDesignDay
243,25.272746652172278
283,23.042034267463256
323,23.99999999999997
3,1, 7,21, 0,SummerDesignDay
244,49.69073245037463,42.6252160782925,15,30,56.7533804434821, 5,50
284,59.74470125403392,52.54269162137164,16,40,69.35417309783732, 5,50
324,53.277263322046319,46.87278722122865,17,20,61.358089192300507, 7,10
4,1, 7
7,21.0245,17.5,21, 5,60,25.1,21,14,60
1,VANCOUVER INTL AP ANN HTG 99.6% CONDNS DB,  49.20,-123.18,  -8.00,   4.30
2,1,12,21, 0, 1, 0.00,10.00,WinterDesignDay
8,-6.1
10,3868232.265912153
437,33300610.758893074
474,0.0
2,1,12,21, 0, 1,10.00,20.00,WinterDesignDay
8,-6.1
10,3868232.265912153
437,33296654.347109237
474,0.0
2,1,12,21, 0, 1,20.00,30.00,WinterDesignDay
8,-6.1
10,3868232.265912153
437,33290405.88449216
474,0.0
2,1,12,21, 0, 1,30.00,40.00,WinterDesignDay
8,-6.1
10,3868232.265912153
437,33283643.296287799
474,0.0
2,1,12,21, 0, 1,40.00,50.00,WinterDesignDay
8,-6.1
10,3868232.265912153
437,33276575.38529587
474,0.0
2,1,12,21, 0, 1,50.00,60.00,WinterDesignDay
8,-6.1
10,3868232.265912153
437,33269339.637558205
474,0.0
2,1,12,21, 0, 1, 0.00,60.00,WinterDesignDay
243,15.474848096478745
283,21.99999999999999
323,22.0
2,1,12,21, 0, 2, 0.00,10.00,WinterDesignDay
8,-6.1
10,2149017.9255067517
437,34295528.41001919
474,0.0
2,1,12,21, 0, 2,10.00,20.00,WinterDesignDay
8,-6.1
10,2149017.9255067517
437,34373765.34345566
474,0.0
2,1,12,21, 0, 2,20.00,30.00,WinterDesignDay
8,-6.1
10,2149017.9255067517
437,34407515.88982451
474,0.0
2,1,12,21, 0, 2,30.00,40.00,WinterDesignDay
8,-6.1
10,2149017.9255067517
437,34432547.4801712
474,0.0
2,1,12,21, 0, 2,40.00,50.00,WinterDesignDay
8,-6.1
10,2149017.9255067517
437,34451031.662463609
474,0.0
2,1,12,21, 0, 2,50.00,60.00,WinterDesignDay
8,-6.1
10,2149017.9255067517
437,34464922.90978409
474,0.0
2,1,12,21, 0, 2, 0.00,60.00,WinterDesignDay
243,15.509612335208646
283,21.999999999999987
323,21.999999999999998
2,1,12,21, 0, 3, 0.00,10.00,WinterDesignDay
8,-6.1
10,429803.5851013504
437,19188991.784209327
474,0.0
2,1,12,21, 0, 3,10.00,20.00,WinterDesignDay
8,-6.1
10,429803.5851013504
437,24378198.818795705
474,0.0
2,1,12,21, 0, 3,20.00,30.00,WinterDesignDay
8,-6.1
10,429803.5851013504
437,25310357.06118757
474,0.0
2,1,12,21, 0, 3,30.00,40.00,WinterDesignDay
8,-6.1
10,429803.5851013504
437,26403017.068974019
474,0.0
2,1,12,21, 0, 3,40.00,50.00,WinterDesignDay
8,-6.1
10,429803.5851013504
437,26724685.54545097
474,0.0
2,1,12,21, 0, 3,50.00,60.00,WinterDesignDay
8,-6.1
10,429803.5851013504
437,26852852.246722066
474,0.0
2,1,12,21, 0, 3, 0.00,60.00,WinterDesignDay
243,15.507139644890458
283,18.069052853262904
323,18.198502496220166
2,1,12,21, 0, 4, 0.00,10.00,WinterDesignDay
8,-6.1
10,429803.5851013504
437,26928420.797188306
474,0.0
2,1,12,21, 0, 4,10.00,20.00,WinterDesignDay
8,-6.1
10,429803.5851013504
437,26997259.06158216
474,0.0
2,1,12,21, 0, 4,20.00,30.00,WinterDesignDay
8,-6.1
10,429803.5851013504
437,27055698.72335858
474,0.0
2,1,12,21, 0, 4,30.00,40.00,WinterDesignDay
8,-6.1
10,429803.5851013504
437,27106263.47085344
474,0.0
2,1,12,21, 0, 4,40.00,50.00,WinterDesignDay
8,-6.1
10,429803.5851013504
437,27150693.4559255
474,0.0
2,1,12,21, 0, 4,50.00,60.00,WinterDesignDay
8,-6.1
10,429803.5851013504
437,27190303.624517189
474,0.0
2,1,12,21, 0, 4, 0.00,60.00,WinterDesignDay
243,15.382968860767832
283,18.00000000289537
323,18.000000000034956
2,1,12,21, 0, 5, 0.00,10.00,WinterDesignDay
8,-6.1
10,429803.5851013504
437,27226069.011538857
474,0.0
2,1,12,21, 0, 5,10.00,20.00,WinterDesignDay
8,-6.1
10,429803.5851013504
437,27258685.566304685
474,0.0
2,1,12,21, 0, 5,20.00,30.00,WinterDesignDay
8,-6.1
10,429803.5851013504
437,27288605.042946448
474,0.0
2,1,12,21, 0, 5,30.00,40.00,WinterDesignDay
8,-6.1
10,429803.5851013504
437,27315993.81952928
474,0.0
2,1,12,21, 0, 5,40.00,50.00,WinterDesignDay
8,-6.1
10,429803.5851013504
437,27339679.82745132
474,0.0
2,1,12,21, 0, 5,50.00,60.00,WinterDesignDay
8,-6.1
10,429803.5851013504
437,27363189.537497384
474,0.0
2,1,12,21, 0, 5, 0.00,60.00,WinterDesignDay
243,15.179290515519903
283,18.000000000000559
323,18.000000000000005
2,1,12,21, 0, 6, 0.00,10.00,WinterDesignDay
8,-6.1
10,429803.5851013504
437,27386179.207000045
474,0.0
2,1,12,21, 0, 6,10.00,20.00,WinterDesignDay
8,-6.1
10,429803.5851013504
437,27408430.594498185
474,0.0
2,1,12,21, 0, 6,20.00,30.00,WinterDesignDay
8,-6.1
10,429803.5851013504
437,27429948.92001788
474,0.0
2,1,12,21, 0, 6,30.00,40.00,WinterDesignDay
8,-6.1
10,429803.5851013504
437,27450690.521900089
474,0.0
2,1,12,21, 0, 6,40.00,50.00,WinterDesignDay
8,-6.1
10,429803.5851013504
437,27470461.931287916
474,0.0
2,1,12,21, 0, 6,50.00,60.00,WinterDesignDay
8,-6.1
10,429803.5851013504
437,27489809.853937299
474,0.0
2,1,12,21, 0, 6, 0.00,60.00,WinterDesignDay
243,14.969248679436447
283,17.999999999999994
323,18.0
2,1,12,21, 0, 7, 0.00,10.00,WinterDesignDay
8,-6.1
10,429803.5851013504
437,27508369.171426726
474,0.0
2,1,12,21, 0, 7,10.00,20.00,WinterDesignDay
8,-6.1
10,429803.5851013504
437,27525956.779433304
474,0.0
2,1,12,21, 0, 7,20.00,30.00,WinterDesignDay
8,-6.1
10,429803.5851013504
437,27548109.715377217
474,0.0
2,1,12,21, 0, 7,30.00,40.00,WinterDesignDay
8,-6.1
10,429803.5851013504
437,27570373.093137638
474,0.0
2,1,12,21, 0, 7,40.00,50.00,WinterDesignDay
8,-6.1
10,429803.5851013504
437,27593037.249800274
474,0.0
2,1,12,21, 0, 7,50.00,60.00,WinterDesignDay
8,-6.1
10,429803.5851013504
437,27615738.365436298
474,0.0
2,1,12,21, 0, 7, 0.00,60.00,WinterDesignDay
243,14.766426251366014
283,17.999999999999998
323,18.0
2,1,12,21, 0, 8, 0.00,10.00,WinterDesignDay
8,-6.1
10,429803.5851013504
437,27639279.197279678
474,0.0
2,1,12,21, 0, 8,10.00,20.00,WinterDesignDay
8,-6.1
10,429803.5851013504
437,27663029.2051787
474,0.0
2,1,12,21, 0, 8,20.00,30.00,WinterDesignDay
8,-6.1
10,429803.5851013504
437,27686976.123836779
474,0.0
2,1,12,21, 0, 8,30.00,40.00,WinterDesignDay
8,-6.1
10,429803.5851013504
437,27711046.33796674
474,0.0
2,1,12,21, 0, 8,40.00,50.00,WinterDesignDay
8,-6.1
10,429803.5851013504
437,27735177.168807325
474,0.0
2,1,12,21, 0, 8,50.00,60.00,WinterDesignDay
8,-6.1
10,429803.5851013504
437,27759312.730421723
474,0.0
2,1,12,21, 0, 8, 0.00,60.00,WinterDesignDay
243,14.57260267921094
283,17.999999999999994
323,18.0
2,1,12,21, 0, 9, 0.00,10.00,WinterDesignDay
8,-6.1
10,429803.5851013504
437,35498449.774783927
474,0.0
2,1,12,21, 0, 9,10.00,20.00,WinterDesignDay
8,-6.1
10,429803.5851013504
437,28387762.214511016
474,0.0
2,1,12,21, 0, 9,20.00,30.00,WinterDesignDay
8,-6.1
10,429803.5851013504
437,33840916.56415392
474,0.0
2,1,12,21, 0, 9,30.00,40.00,WinterDesignDay
8,-6.1
10,429803.5851013504
437,32537859.119218626
474,0.0
2,1,12,21, 0, 9,40.00,50.00,WinterDesignDay
8,-6.1
10,429803.5851013504
437,32492049.020534129
474,0.0
2,1,12,21, 0, 9,50.00,60.00,WinterDesignDay
8,-6.1
10,429803.5851013504
437,32467022.469310374
474,0.0
2,1,12,21, 0, 9, 0.00,60.00,WinterDesignDay
243,14.399588922717684
283,19.996433081169675
323,20.005879699314407
2,1,12,21, 0,10, 0.00,10.00,WinterDesignDay
8,-6.1
10,2149017.9255067517
437,40412831.14826007
474,0.0
2,1,12,21, 0,10,10.00,20.00,WinterDesignDay
8,-6.1
10,2149017.9255067517
437,32888868.753852156
474,0.0
2,1,12,21, 0,10,20.00,30.00,WinterDesignDay
8,-6.1
10,2149017.9255067517
437,38116585.16522976
474,0.0
2,1,12,21, 0,10,30.00,40.00,WinterDesignDay
8,-6.1
10,2149017.9255067517
437,36726214.31358281
474,0.0
2,1,12,21, 0,10,40.00,50.00,WinterDesignDay
8,-6.1
10,2149017.9255067517
437,36592211.34000811
474,0.0
2,1,12,21, 0,10,50.00,60.00,WinterDesignDay
8,-6.1
10,2149017.9255067517
437,36495341.545553248
474,0.0
2,1,12,21, 0,10, 0.00,60.00,WinterDesignDay
243,14.287971943712109
283,21.996694256538548
323,22.00322993647106
2,1,12,21, 0,11, 0.00,10.00,WinterDesignDay
8,-6.1
10,3008625.0957094526
437,35892281.297692779
474,0.0
2,1,12,21, 0,11,10.00,20.00,WinterDesignDay
8,-6.1
10,3008625.0957094526
437,35786357.35831967
474,0.0
2,1,12,21, 0,11,20.00,30.00,WinterDesignDay
8,-6.1
10,3008625.0957094526
437,35714689.875290479
474,0.0
2,1,12,21, 0,11,30.00,40.00,WinterDesignDay
8,-6.1
10,3008625.0957094526
437,35654913.85154075
474,0.0
2,1,12,21, 0,11,40.00,50.00,WinterDesignDay
8,-6.1
10,3008625.0957094526
437,35603931.98179028
474,0.0
2,1,12,21, 0,11,50.00,60.00,WinterDesignDay
8,-6.1
10,3008625.0957094526
437,35559398.74810706
474,0.0
2,1,12,21, 0,11, 0.00,60.00,WinterDesignDay
243,14.304178419297179
283,21.99999999999994
323,22.00000000000001
2,1,12,21, 0,12, 0.00,10.00,WinterDesignDay
8,-6.1
10,3868232.265912153
437,34680886.50241625
474,0.0
2,1,12,21, 0,12,10.00,20.00,WinterDesignDay
8,-6.1
10,3868232.265912153
437,34591264.532756429
474,0.0
2,1,12,21, 0,12,20.00,30.00,WinterDesignDay
8,-6.1
10,3868232.265912153
437,34532127.59694986
474,0.0
2,1,12,21, 0,12,30.00,40.00,WinterDesignDay
8,-6.1
10,3868232.265912153
437,34480503.559374239
474,0.0
2,1,12,21, 0,12,40.00,50.00,WinterDesignDay
8,-6.1
10,3868232.265912153
437,34434755.529511358
474,0.0
2,1,12,21, 0,12,50.00,60.00,WinterDesignDay
8,-6.1
10,3868232.265912153
437,34393244.39450531
474,0.0
2,1,12,21, 0,12, 0.00,60.00,WinterDesignDay
243,14.402771122787707
283,21.999999999999984
323,21.999999999999998
2,1,12,21, 0,13, 0.00,10.00,WinterDesignDay
8,-6.1
10,3868232.265912153
437,33728214.24718031
474,0.0
2,1,12,21, 0,13,10.00,20.00,WinterDesignDay
8,-6.1
10,3868232.265912153
437,33674893.81930793
474,0.0
2,1,12,21, 0,13,20.00,30.00,WinterDesignDay
8,-6.1
10,3868232.265912153
437,33632211.004697609
474,0.0
2,1,12,21, 0,13,30.00,40.00,WinterDesignDay
8,-6.1
10,3868232.265912153
437,33593050.5103419
474,0.0
2,1,12,21, 0,13,40.00,50.00,WinterDesignDay
8,-6.1
10,3868232.265912153
437,33556515.66839876
474,0.0
2,1,12,21, 0,13,50.00,60.00,WinterDesignDay
8,-6.1
10,3868232.265912153
437,33521931.545039536
474,0.0
2,1,12,21, 0,13, 0.00,60.00,WinterDesignDay
243,14.524702430471395