Program Version,EnergyPlus, Version 8.9.0-eba93e8e1b, YMD=2018.09.18 17:19
1,5,Environment Title[],Latitude[deg],Longitude[deg],Time Zone[],Elevation[m]
2,8,Day of Simulation[],Month[],Day of Month[],DST Indicator[1=yes 0=no],Hour[],StartMinute[],EndMinute[],DayType
3,5,Cumulative Day of Simulation[],Month[],Day of Month[],DST Indicator[1=yes 0=no],DayType  ! When Daily Report Variables Requested
4,2,Cumulative Days of Simulation[],Month[]  ! When Monthly Report Variables Requested
5,1,Cumulative Days of Simulation[] ! When Run Period Report Variables Requested
6,1,Calendar Year of Simulation[] ! When Annual Report Variables Requested
7,9,Environment,Site Outdoor Air Drybulb Temperature [C] !Monthly [Value,Min,Day,Hour,Minute,Max,Day,Hour,Minute]
8,1,Environment,Site Outdoor Air Wetbulb Temperature [C] !TimeStep
951,1,BANQUET_FLR_6 ZN,Zone Air Temperature [C] !Hourly
952,7,BANQUET_FLR_6 ZN,Zone Air Relative Humidity [%] !Daily [Value,Min,Hour,Minute,Max,Hour,Minute]
991,1,BASEMENT ZN,Zone Air Temperature [C] !Hourly
992,7,BASEMENT ZN,Zone Air Relative Humidity [%] !Daily [Value,Min,Hour,Minute,Max,Hour,Minute]
1031,1,CAFE_FLR_1 ZN,Zone Air Temperature [C] !Hourly
1032,7,CAFE_FLR_1 ZN,Zone Air Relative Humidity [%] !Daily [Value,Min,Hour,Minute,Max,Hour,Minute]
1071,1,CORRIDOR_FLR_3 ZN,Zone Air Temperature [C] !Hourly
1072,7,CORRIDOR_FLR_3 ZN,Zone Air Relative Humidity [%] !Daily [Value,Min,Hour,Minute,Max,Hour,Minute]
1111,1,CORRIDOR_FLR_6 ZN,Zone Air Temperature [C] !Hourly
1112,7,CORRIDOR_FLR_6 ZN,Zone Air Relative Humidity [%] !Daily [Value,Min,Hour,Minute,Max,Hour,Minute]
1151,1,DINING_FLR_6 ZN,Zone Air Temperature [C] !Hourly
1152,7,DINING_FLR_6 ZN,Zone Air Relative Humidity [%] !Daily [Value,Min,Hour,Minute,Max,Hour,Minute]
1191,1,KITCHEN_FLR_6 ZN,Zone Air Temperature [C] !Hourly
1192,7,KITCHEN_FLR_6 ZN,Zone Air Relative Humidity [%] !Daily [Value,Min,Hour,Minute,Max,Hour,Minute]
1231,1,LAUNDRY_FLR_1 ZN,Zone Air Temperature [C] !Hourly
1232,7,LAUNDRY_FLR_1 ZN,Zone Air Relative Humidity [%] !Daily [Value,Min,Hour,Minute,Max,Hour,Minute]
1271,1,LOBBY_FLR_1 ZN,Zone Air Temperature [C] !Hourly
1272,7,LOBBY_FLR_1 ZN,Zone Air Relative Humidity [%] !Daily [Value,Min,Hour,Minute,Max,Hour,Minute]
1311,1,MECH_FLR_1 ZN,Zone Air Temperature [C] !Hourly
1312,7,MECH_FLR_1 ZN,Zone Air Relative Humidity [%] !Daily [Value,Min,Hour,Minute,Max,Hour,Minute]
1351,1,RETAIL_1_FLR_1 ZN,Zone Air Temperature [C] !Hourly
1352,7,RETAIL_1_FLR_1 ZN,Zone Air Relative Humidity [%] !Daily [Value,Min,Hour,Minute,Max,Hour,Minute]
1391,1,RETAIL_2_FLR_1 ZN,Zone Air Temperature [C] !Hourly
1392,7,RETAIL_2_FLR_1 ZN,Zone Air Relative Humidity [%] !Daily [Value,Min,Hour,Minute,Max,Hour,Minute]
1431,1,ROOM_1_FLR_3 ZN,Zone Air Temperature [C] !Hourly
1432,7,ROOM_1_FLR_3 ZN,Zone Air Relative Humidity [%] !Daily [Value,Min,Hour,Minute,Max,Hour,Minute]
1471,1,ROOM_1_FLR_6 ZN,Zone Air Temperature [C] !Hourly
1472,7,ROOM_1_FLR_6 ZN,Zone Air Relative Humidity [%] !Daily [Value,Min,Hour,Minute,Max,Hour,Minute]
1511,1,ROOM_2_FLR_3 ZN,Zone Air Temperature [C] !Hourly
1512,7,ROOM_2_FLR_3 ZN,Zone Air Relative Humidity [%] !Daily [Value,Min,Hour,Minute,Max,Hour,Minute]
1551,1,ROOM_2_FLR_6 ZN,Zone Air Temperature [C] !Hourly
1552,7,ROOM_2_FLR_6 ZN,Zone Air Relative Humidity [%] !Daily [Value,Min,Hour,Minute,Max,Hour,Minute]
1591,1,ROOM_3_MULT19_FLR_3 ZN,Zone Air Temperature [C] !Hourly
1592,7,ROOM_3_MULT19_FLR_3 ZN,Zone Air Relative Humidity [%] !Daily [Value,Min,Hour,Minute,Max,Hour,Minute]
1631,1,ROOM_3_MULT9_FLR_6 ZN,Zone Air Temperature [C] !Hourly
1632,7,ROOM_3_MULT9_FLR_6 ZN,Zone Air Relative Humidity [%] !Daily [Value,Min,Hour,Minute,Max,Hour,Minute]
1671,1,ROOM_4_MULT19_FLR_3 ZN,Zone Air Temperature [C] !Hourly
1672,7,ROOM_4_MULT19_FLR_3 ZN,Zone Air Relative Humidity [%] !Daily [Value,Min,Hour,Minute,Max,Hour,Minute]
1711,1,ROOM_5_FLR_3 ZN,Zone Air Temperature [C] !Hourly
1712,7,ROOM_5_FLR_3 ZN,Zone Air Relative Humidity [%] !Daily [Value,Min,Hour,Minute,Max,Hour,Minute]
1751,1,ROOM_6_FLR_3 ZN,Zone Air Temperature [C] !Hourly
1752,7,ROOM_6_FLR_3 ZN,Zone Air Relative Humidity [%] !Daily [Value,Min,Hour,Minute,Max,Hour,Minute]
1791,1,STORAGE_FLR_1 ZN,Zone Air Temperature [C] !Hourly
1792,7,STORAGE_FLR_1 ZN,Zone Air Relative Humidity [%] !Daily [Value,Min,Hour,Minute,Max,Hour,Minute]
10,1,Electricity:Facility [J] !TimeStep
1942,1,DistrictCooling:Facility [J] !TimeStep
1905,1,DistrictHeating:Facility [J] !TimeStep
End of Data Dictionary
1,VANCOUVER INTL AP ANN CLG .4% CONDNS DB=>MWB,  49.20,-123.18,  -8.00,   4.30
2,1, 7,21, 0, 1, 0.00,10.00,SummerDesignDay
8,16.352199953652215
10,19801454.547994537
1905,2230606.6660294889
1942,7388286.153880696
2,1, 7,21, 0, 1,10.00,20.00,SummerDesignDay
8,16.3252576442975
10,19801454.547994537
1905,2502580.273154949
1942,6673947.4665189259
2,1, 7,21, 0, 1,20.00,30.00,SummerDesignDay
8,16.2982938306074
10,19801454.547994537
1905,2757750.992158683
1942,6399865.723126637
2,1, 7,21, 0, 1,30.00,40.00,SummerDesignDay
8,16.271298954341999
10,19801454.547994537
1905,3001232.5616851227
1942,6165305.686390799
2,1, 7,21, 0, 1,40.00,50.00,SummerDesignDay
8,16.244276700157607
10,19801454.547994537
1905,3234745.8952059515
1942,5931679.152907668
2,1, 7,21, 0, 1,50.00,60.00,SummerDesignDay
8,16.217228272321866
10,19801454.547994537
1905,3459795.8477769407
1942,5698880.605628825
2,1, 7,21, 0, 1, 0.00,60.00,SummerDesignDay
951,22.000003514908689
991,23.92536444851449
1031,21.982771718325684
1071,24.579152210512395
1111,22.991414900412754
1151,22.000004247999966
1191,24.000000000000019
1231,24.194606626485329
1271,24.00000000000001
1311,24.458403098507703
1351,22.681424092067876
1391,23.52713820273728
1431,23.958008277325168
1471,23.077424689597547
1511,23.936035340910448
1551,22.98069185346571
1591,23.966640248658377
1631,23.10620984265604
1671,23.94164093111024
1711,23.79433338672965
1751,23.757950529500879
1791,24.47280484866535
2,1, 7,21, 0, 2, 0.00,10.00,SummerDesignDay
8,16.199184445315237
10,16469276.04933984
1905,4646154.236739159
1942,5353044.079398011
2,1, 7,21, 0, 2,10.00,20.00,SummerDesignDay
8,16.181123823551326
10,16469276.04933984
1905,4906859.094818993
1942,5199937.803348162
2,1, 7,21, 0, 2,20.00,30.00,SummerDesignDay
8,16.163056857826836
10,16469276.04933984
1905,5127180.456842513
1942,5047255.356411095
2,1, 7,21, 0, 2,30.00,40.00,SummerDesignDay
8,16.144971888810827
10,16469276.04933984
1905,5333874.94962139
1942,4895003.984204239
2,1, 7,21, 0, 2,40.00,50.00,SummerDesignDay
8,16.12688104636919
10,16469276.04933984
1905,5528283.724590506
1942,4743176.960070323
2,1, 7,21, 0, 2,50.00,60.00,SummerDesignDay
8,16.108773026303486
10,16469276.04933984
1905,5712430.300059704
1942,4591751.12575517
2,1, 7,21, 0, 2, 0.00,60.00,SummerDesignDay
951,22.000000000501279
991,23.808728740751055
1031,21.696540188928258
1071,24.37742062859138
1111,22.50046362497712
1151,22.00000000059566
1191,23.42221743510825
1231,24.013859818692017
1271,24.000000000000019
1311,24.37274713152844
1351,22.40200724107039
1391,23.317281718619019
1431,23.673545409257128
1471,22.486359386018035
1511,23.6266452087803
1551,22.3893702536224
1591,23.78083645427216
1631,22.646196242547906
1671,23.727641090637844
1711,23.485961474786455
1751,23.437953070325066
1791,24.38502133054698
2,1, 7,21, 0, 3, 0.00,10.00,SummerDesignDay
8,16.095187997840726
10,14622320.516595129
1905,0.0
1942,4467050.155841503
2,1, 7,21, 0, 3,10.00,20.00,SummerDesignDay
8,16.08159647937563
10,14622320.516595129
1905,0.0
1942,4342800.887191512
2,1, 7,21, 0, 3,20.00,30.00,SummerDesignDay
8,16.067992103020477
10,14622320.516595129
1905,0.0
1942,4219290.269954668
2,1, 7,21, 0, 3,30.00,40.00,SummerDesignDay
8,16.054387489767213
10,14622320.516595129
1905,0.0
1942,4096086.8371186095
2,1, 7,21, 0, 3,40.00,50.00,SummerDesignDay
8,16.040775235496488
10,14622320.516595129
1905,0.0
1942,3973607.3937739806
2,1, 7,21, 0, 3,50.00,60.00,SummerDesignDay
8,16.027151463515208
10,14622320.516595129
1905,0.0
1942,3851521.5667778037
2,1, 7,21, 0, 3, 0.00,60.00,SummerDesignDay
951,20.12735035336089
991,23.71763767863907
1031,21.48344006106151
1071,24.191526312839249
1111,22.04899035859266
1151,20.158850318951538
1191,22.12171972359646
1231,23.86567432222545
1271,24.000000000000015
1311,24.301449264568146
1351,22.185038713306356
1391,23.152533279876807
1431,23.398850598467005
1471,22.002089923317035
1511,23.345212260254028
1551,21.910849804028975
1591,23.608721217636288
1631,22.254359658920309
1671,23.537044762609268
1711,23.225874343147166
1751,23.171582616704489
1791,24.31195913196019
2,1, 7,21, 0, 4, 0.00,10.00,SummerDesignDay
8,16.013526309671386
10,13137097.550685129
1905,0.0
1942,3729706.344947423
2,1, 7,21, 0, 4,10.00,20.00,SummerDesignDay
8,15.999888590638458
10,13137097.550685129
1905,0.0
1942,3608030.0043140805
2,1, 7,21, 0, 4,20.00,30.00,SummerDesignDay
8,15.986249958378048
10,13137097.550685129
1905,0.0
1942,3486519.9385983694
2,1, 7,21, 0, 4,30.00,40.00,SummerDesignDay
8,15.972604339068287
10,13137097.550685129
1905,0.0
1942,3365230.0737333025
2,1, 7,21, 0, 4,40.00,50.00,SummerDesignDay
8,15.958946698244901
10,13137097.550685129
1905,0.0
1942,3244183.866001941
2,1, 7,21, 0, 4,50.00,60.00,SummerDesignDay
8,15.945287702730492
10,13137097.550685129
1905,0.0
1942,3123377.140315787
2,1, 7,21, 0, 4, 0.00,60.00,SummerDesignDay
951,19.157604583111959
991,23.61836352421877
1031,21.27775369014828
1071,23.976034723559896
1111,21.43878775503337
1151,19.184856451714219
1191,20.987609846183145
1231,23.71133790086932
1271,24.00000000000003
1311,24.21925617362521
1351,21.970423579320444
1391,22.986971004313955
1431,23.072849289630964
1471,21.468192706700067
1511,23.01479102941126
1551,21.38255029671518
1591,23.385712266835168
1631,21.80815309149779
1671,23.29563356511433
1711,22.91468742784529
1751,22.8561899287789
1791,24.22934364103916
2,1, 7,21, 0, 5, 0.00,10.00,SummerDesignDay
8,15.936177990809899
10,13137097.550685129
1905,0.0
1942,3028695.2655095879
2,1, 7,21, 0, 5,10.00,20.00,SummerDesignDay
8,15.92705949178547
10,13137097.550685129
1905,0.0
1942,2934692.7990531825
2,1, 7,21, 0, 5,20.00,30.00,SummerDesignDay
8,15.917943710706878
10,13137097.550685129
1905,0.0
1942,2841075.2501687875
2,1, 7,21, 0, 5,30.00,40.00,SummerDesignDay
8,15.908825155859729
10,13137097.550685129
1905,0.0
1942,2810942.303260482
2,1, 7,21, 0, 5,40.00,50.00,SummerDesignDay
8,15.89970321878413
10,13137097.550685129
1905,0.0
1942,2785558.0697871295
2,1, 7,21, 0, 5,50.00,60.00,SummerDesignDay
8,15.89058503181825
10,13137097.550685129
1905,0.0
1942,2764451.7968803534
2,1, 7,21, 0, 5, 0.00,60.00,SummerDesignDay
951,18.67351432000329
991,23.53117594419547
1031,21.133705607299555
1071,23.77891505806963
1111,20.857598236989579
1151,18.690286628746173
1191,20.34338759016919
1231,23.576719339943624
1271,24.0
1311,24.14443856909789
1351,21.81424896407384
1391,22.846886853454888
1431,22.799328251112944
1471,21.026343976220617
1511,22.76190253185651
1551,20.968904515795445
1591,23.18873328879315
1631,21.431726261712855
1671,23.113556714170799
1711,22.763012576165634
1751,22.731014424084277
1791,24.154686242382355
2,1, 7,21, 0, 6, 0.00,10.00,SummerDesignDay
8,15.89970321878413
10,13137097.550685129
1905,0.0
1942,2873870.955455902
2,1, 7,21, 0, 6,10.00,20.00,SummerDesignDay
8,15.908825155859729
10,13137097.550685129
1905,0.0
1942,2989774.156552187
2,1, 7,21, 0, 6,20.00,30.00,SummerDesignDay
8,15.917943710706878
10,13137097.550685129
1905,0.0
1942,4611706.11452192
2,1, 7,21, 0, 6,30.00,40.00,SummerDesignDay
8,15.92705949178547
10,13137097.550685129
1905,0.0
1942,5804512.052481067
2,1, 7,21, 0, 6,40.00,50.00,SummerDesignDay
8,15.936177990809899
10,13137097.550685129
1905,0.0
1942,7163780.108924125
2,1, 7,21, 0, 6,50.00,60.00,SummerDesignDay
8,15.945287702730492
10,13137097.550685129
1905,0.0
1942,8590243.978783122
2,1, 7,21, 0, 6, 0.00,60.00,SummerDesignDay
951,18.722137793980079
991,23.471392599788357
1031,21.34481608007853
1071,23.723503525213578
1111,20.648178500764045
1151,18.766944490604446
1191,21.91005473493801
1231,23.489892204693424
1271,24.00000000000001
1311,24.091151456153616
1351,21.98844250773888
1391,22.77409233096812
1431,22.752048182659807
1471,20.963913968624433
1511,22.92578560985729
1551,21.16935638180996
1591,23.090124925798077
1631,21.332186889656147
1671,23.27799596563642
1711,23.820196684891355
1751,23.857730697538839
1791,24.10317120656732
2,1, 7,21, 0, 7, 0.00,10.00,SummerDesignDay
8,15.977153459569559
10,14622320.516595129
1905,0.0
1942,10244943.876337439
2,1, 7,21, 0, 7,10.00,20.00,SummerDesignDay
8,16.00898303120887
10,14622320.516595129
1905,0.0
1942,11818541.563636069
2,1, 7,21, 0, 7,20.00,30.00,SummerDesignDay
8,16.040775235496488
10,14622320.516595129
1905,0.0
1942,13359601.671386522
2,1, 7,21, 0, 7,30.00,40.00,SummerDesignDay
8,16.072525945973774
10,14622320.516595129
1905,0.0
1942,14568547.916465525
2,1, 7,21, 0, 7,40.00,50.00,SummerDesignDay
8,16.104245538982189
10,14622320.516595129
1905,0.0
1942,15213676.50534908
2,1, 7,21, 0, 7,50.00,60.00,SummerDesignDay
8,16.135928228205914
10,14622320.516595129
1905,0.0
1942,15923607.700165607
2,1, 7,21, 0, 7, 0.00,60.00,SummerDesignDay
951,19.069661840541938
991,23.459398261361259
1031,21.876781650413098
1071,23.86669458912334
1111,20.882464495901315
1151,19.199701783245059
1191,25.27444872400655
1231,23.491822846868219
1271,24.000000000000015
1311,24.076921583063993
1351,22.480909448533905
1391,22.827525548693605
1431,23.02204751198317
1471,21.444783473644255
1511,23.346822124166338
1551,21.795344695882009
1591,23.155373525256537
1631,21.644687023463225
1671,23.548299758992007
1711,23.999999999466696
1751,23.999999999397159
1791,24.094357738682235
2,1, 7,21, 0, 8, 0.00,10.00,SummerDesignDay
8,16.212718231329928
10,17592766.44841512
1905,0.0
1942,17444956.483849676
2,1, 7,21, 0, 8,10.00,20.00,SummerDesignDay
8,16.289295095914626
10,17592766.44841512
1905,0.0
1942,18886276.46656581
2,1, 7,21, 0, 8,20.00,30.00,SummerDesignDay
8,16.365658732225424
10,17592766.44841512
1905,0.0
1942,20335170.96425898
2,1, 7,21, 0, 8,30.00,40.00,SummerDesignDay
8,16.44181049723187
10,17592766.44841512
1905,0.0
1942,21785994.38084185
2,1, 7,21, 0, 8,40.00,50.00,SummerDesignDay
8,16.517756147764346
10,17592766.44841512
1905,0.0
1942,23337344.964691838
2,1, 7,21, 0, 8,50.00,60.00,SummerDesignDay
8,16.593486849767513
10,17592766.44841512
1905,0.0
1942,24814627.629103289
2,1, 7,21, 0, 8, 0.00,60.00,SummerDesignDay
951,19.7874878447652
991,23.53478614595382
1031,22.733868412868046
1071,23.998159915679936
1111,21.44980547657011
1151,19.997662771692395
1191,29.01603825226459
1231,23.637428766596036
1271,24.000000000000015
1311,23.99503931114606
1351,23.251610627015397
1391,23.064485187707907
1431,23.605146294815616
1471,22.43812417739834
1511,23.86519598723469
1551,22.680638147984749
1591,23.41386594206122
1631,22.390781963897909
1671,23.85696980314961
1711,24.000000000000019
1751,24.000000000000058
1791,23.994586338120319
2,1, 7,21, 0, 9, 0.00,10.00,SummerDesignDay
8,16.677878063199516
10,28581307.02960424
1905,760692.228128433
1942,39585615.45109426
2,1, 7,21, 0, 9,10.00,20.00,SummerDesignDay
8,16.76200946235728
10,28581307.02960424
1905,0.0
1942,39054153.3579405
2,1, 7,21, 0, 9,20.00,30.00,SummerDesignDay
8,16.845887031033866
10,28581307.02960424
1905,0.0
1942,42121478.595760207
2,1, 7,21, 0, 9,30.00,40.00,SummerDesignDay
8,16.929502190751337
10,28581307.02960424
1905,0.0
1942,44355764.702626269
2,1, 7,21, 0, 9,40.00,50.00,SummerDesignDay
8,17.012861351115086
10,28581307.02960424
1905,0.0
1942,47760478.67047236
2,1, 7,21, 0, 9,50.00,60.00,SummerDesignDay
8,17.09597057951627
10,28581307.02960424
1905,0.0
1942,53495565.09109342
2,1, 7,21, 0, 9, 0.00,60.00,SummerDesignDay
951,20.87306857714901
991,23.887903500624565
1031,23.85241310706769
1071,24.00000000000001
1111,22.64274836072644
1151,21.15266998720072
1191,24.008808324673823
1231,23.992393967197648
1271,24.00000000000001
1311,24.0
1351,23.981355621679695
1391,23.790110636729155
1431,23.994257532966658
1471,23.60413946333401
1511,23.9999999996374
1551,23.670229627812856
1591,23.78235353551197
1631,23.407689032704054
1671,23.999529625663525
1711,24.00000000000004
1751,24.000000000000026
1791,24.00000000000001
2,1, 7,21, 0,10, 0.00,10.00,SummerDesignDay
8,17.17011313897211
10,37149702.74592987
1905,1164643.573978921
1942,62813268.63460235
2,1, 7,21, 0,10,10.00,20.00,SummerDesignDay
8,17.24405314489198
10,37149702.74592987
1905,0.0
1942,68657881.18172266
2,1, 7,21, 0,10,20.00,30.00,SummerDesignDay
8,17.317792342150307
10,37149702.74592987
1905,0.0
1942,75962626.7272339
2,1, 7,21, 0,10,30.00,40.00,SummerDesignDay
8,17.391330750865035
10,37149702.74592987
1905,0.0
1942,82198635.04525529
2,1, 7,21, 0,10,40.00,50.00,SummerDesignDay
8,17.464669750704549
10,37149702.74592987
1905,0.0
1942,89023685.9176701
2,1, 7,21, 0,10,50.00,60.00,SummerDesignDay
8,17.537810589481837
10,37149702.74592987
1905,0.0
1942,96139212.3258909
2,1, 7,21, 0,10, 0.00,60.00,SummerDesignDay
951,22.651684710657649
991,23.99999995756684
1031,23.999999996517475
1071,24.0
1111,23.884804448506644
1151,22.852689532169007
1191,24.00000001637819
1231,24.0
1271,24.000000000000019
1311,24.000000000000005
1351,23.999999999999536
1391,23.9999998929467
1431,24.00000000000003
1471,23.99999940289888
1511,24.000000000000005
1551,23.99999961433826
1591,23.999991560280305
1631,23.999978493048677
1671,24.000000000000015
1711,24.00000000000011
1751,24.00000000000008
1791,24.00000000000001
2,1, 7,21, 0,11, 0.00,10.00,SummerDesignDay
8,17.60218312883583
10,42406325.66593183
1905,0.0
1942,105069841.50731257
2,1, 7,21, 0,11,10.00,20.00,SummerDesignDay
8,17.666401914182499
10,42406325.66593183
1905,0.0
1942,113141037.48929164
2,1, 7,21, 0,11,20.00,30.00,SummerDesignDay
8,17.73046886665172
10,42406325.66593183
1905,0.0
1942,122182098.28827212
2,1, 7,21, 0,11,30.00,40.00,SummerDesignDay
8,17.794377337180749
10,42406325.66593183
1905,0.0
1942,129425970.96509695
2,1, 7,21, 0,11,40.00,50.00,SummerDesignDay
8,17.858140091722729
10,42406325.66593183
1905,0.0
1942,137156607.22293616
2,1, 7,21, 0,11,50.00,60.00,SummerDesignDay
8,17.921751671476274
10,42406325.66593183
1905,0.0
1942,144307861.90401534
2,1, 7,21, 0,11, 0.00,60.00,SummerDesignDay
951,23.889188586032593
991,24.000000000000015
1031,23.999999999999934
1071,24.00000000000001
1111,23.999999999994829
1151,23.950921723412873
1191,24.000000000000069
1231,24.00000000000001
1271,24.000000000000019
1311,24.00000000000001
1351,24.00000000000004
1391,24.00000000000003
1431,23.999999999999998
1471,24.00000000000001
1511,24.000000000000019
1551,24.000000000000015
1591,24.000000000000015
1631,23.99999999999999
1671,24.000000000000005
1711,24.00000000000003
1751,24.000000000000044
1791,24.00000000000001
2,1, 7,21, 0,12, 0.00,10.00,SummerDesignDay
8,17.964074041059168
10,41844580.4663942
1905,0.0
1942,151087010.8907459
2,1, 7,21, 0,12,10.00,20.00,SummerDesignDay
8,18.00633512830953
10,41844580.4663942
1905,0.0
1942,156955556.32260818
2,1, 7,21, 0,12,20.00,30.00,SummerDesignDay
8,18.048524057857607
10,41844580.4663942
1905,0.0
1942,161483762.25636045
2,1, 7,21, 0,12,30.00,40.00,SummerDesignDay
8,18.090647246552004
10,41844580.4663942
1905,0.0
1942,165722703.6469305
2,1, 7,21, 0,12,40.00,50.00,SummerDesignDay
8,18.132703529720616
10,41844580.4663942
1905,0.0
1942,169769002.68983389
2,1, 7,21, 0,12,50.00,60.00,SummerDesignDay
8,18.17469964536842
10,41844580.4663942
1905,0.0
1942,173629133.02480854
2,1, 7,21, 0,12, 0.00,60.00,SummerDesignDay
951,23.999993630835346
991,24.00000000000001
1031,24.000000000000055
1071,24.000000000000019
1111,24.000000000000015
1151,23.99999935161776
1191,24.000000000000005
1231,24.000000000000015
1271,24.00000000000003
1311,24.0
1351,24.000000000000158
1391,24.000000000000047
1431,24.000000000000069
1471,24.000000000000047
1511,24.000000000000033
1551,24.000000000000019
1591,24.0
1631,24.000000000000115
1671,24.000000000000015
1711,24.000000000000069
1751,24.000000000000015
1791,23.999999999999998
2,1, 7,21, 0,13, 0.00,10.00,SummerDesignDay
8,18.208245339828517
10,40359357.500484209
1905,0.0
1942,177686292.9724667
2,1, 7,21, 0,13,10.00,20.00,SummerDesignDay
8,18.241744233723979
10,40359357.500484209
1905,0.0
1942,180864908.15101094
2,1, 7,21, 0,13,20.00,30.00,SummerDesignDay
8,18.2752069112248
10,40359357.500484209
1905,0.0
1942,183796917.1185243
2,1, 7,21, 0,13,30.00,40.00,SummerDesignDay
8,18.30862693969058
10,40359357.500484209
1905,0.0
1942,186418524.17137829
2,1, 7,21, 0,13,40.00,50.00,SummerDesignDay
8,18.342005526737105
10,40359357.500484209
1905,0.0
1942,188691273.7960227
2,1, 7,21, 0,13,50.00,60.00,SummerDesignDay
8,18.375341817792614
10,40359357.500484209
1905,0.0
1942,190613189.84395466
2,1, 7,21, 0,13, 0.00,60.00,SummerDesignDay
951,23.99999999934239
991,24.000000000000005
1031,24.000000000000044
1071,24.00000000000004
1111,24.0
1151,23.999999999935296
1191,24.000000000000129
1231,24.000000000000005
1271,24.000000000000015
1311,23.999999999999998
1351,24.000000000000047
1391,24.000000000000015
1431,24.000000000000026
1471,24.000000000000047
1511,24.000000000000026
1551,24.000000000000047
1591,24.0
1631,24.000000000000119
1671,24.000000000000019
1711,24.000000000000129
1751,24.00000000000004
1791,23.999999999999998
2,1, 7,21, 0,14, 0.00,10.00,SummerDesignDay
8,18.39615811087369
10,40359357.500484209
1905,0.0
1942,191509796.75623764
2,1, 7,21, 0,14,10.00,20.00,SummerDesignDay
8,18.416957955881725
10,40359357.500484209
1905,0.0
1942,192390337.28931038
2,1, 7,21, 0,14,20.00,30.00,SummerDesignDay
8,18.43773680274513
10,40359357.500484209
1905,0.0
1942,192980269.20132078
2,1, 7,21, 0,14,30.00,40.00,SummerDesignDay
8,18.458504433044504
10,40359357.500484209
1905,0.0
1942,193307223.60695977
2,1, 7,21, 0,14,40.00,50.00,SummerDesignDay
8,18.479250383250578
10,40359357.500484209
1905,0.0
1942,193392736.24493469
2,1, 7,21, 0,14,50.00,60.00,SummerDesignDay
8,18.499985692685468
10,40359357.500484209
1905,0.0
1942,193264822.18976368
2,1, 7,21, 0,14, 0.00,60.00,SummerDesignDay
951,23.999999999999877
991,24.00000000000001
1031,24.00000000000006
1071,24.000000000000055
1111,24.000000000000026
1151,24.00000000000001
1191,24.00000000000008
1231,24.00000000000003
1271,24.00000000000006
1311,24.00000000000001
1351,24.000000000000033
1391,24.00000000000004
1431,24.000000000000158
1471,24.0
1511,24.00000000000003
1551,24.000000000000005
1591,24.000000000000097
1631,24.00000000000011
1671,24.00000000000001
1711,24.000000000000019
1751,24.00000000000003
1791,24.000000000000015
2,1, 7,21, 0,15, 0.00,10.00,SummerDesignDay
8,18.499985692685468
10,40359357.500484209
1905,0.0
1942,190714207.4647735
2,1, 7,21, 0,15,10.00,20.00,SummerDesignDay
8,18.499985692685468
10,40359357.500484209
1905,0.0
1942,189499695.99774165
2,1, 7,21, 0,15,20.00,30.00,SummerDesignDay
8,18.499985692685468
10,40359357.500484209
1905,0.0
1942,188146773.24935258
2,1, 7,21, 0,15,30.00,40.00,SummerDesignDay
8,18.499985692685468
10,40359357.500484209
1905,0.0
1942,186626534.87141413
2,1, 7,21, 0,15,40.00,50.00,SummerDesignDay
8,18.499985692685468
10,40359357.500484209
1905,0.0
1942,184942364.02406336
2,1, 7,21, 0,15,50.00,60.00,SummerDesignDay
8,18.499985692685468
10,40359357.500484209
1905,0.0
1942,183131024.80313809
2,1, 7,21, 0,15, 0.00,60.00,SummerDesignDay
951,23.999999999999969
991,24.0
1031,24.0
1071,24.0
1111,23.999999999999987
1151,24.00000000000004
1191,24.000000000000069
1231,24.000000000000019
1271,24.0
1311,24.000000000000005
1351,24.00000000000007
1391,24.000000000000026
1431,24.000000000000005
1471,24.000000000000119
1511,24.000000000000055
1551,24.0
1591,24.000000000000069
1631,23.999999999999944
1671,24.00000000000001
1711,24.0
1751,24.0
1791,24.000000000000019
2,1, 7,21, 0,16, 0.00,10.00,SummerDesignDay
8,18.475102970177127
10,40359357.500484209
1905,0.0
1942,180143698.64666236
2,1, 7,21, 0,16,10.00,20.00,SummerDesignDay
8,18.450201543271235
10,40359357.500484209
1905,0.0
1942,177409887.75320555
2,1, 7,21, 0,16,20.00,30.00,SummerDesignDay
8,18.425271777286019
10,40359357.500484209
1905,0.0
1942,174658891.28719709
2,1, 7,21, 0,16,30.00,40.00,SummerDesignDay
8,18.40031825447926
10,40359357.500484209
1905,0.0
1942,171848912.38162375
2,1, 7,21, 0,16,40.00,50.00,SummerDesignDay
8,18.375341817792614
10,40359357.500484209
1905,0.0
1942,168999916.86720083
2,1, 7,21, 0,16,50.00,60.00,SummerDesignDay
8,18.350347174046595
10,40359357.500484209
1905,0.0
1942,166092899.73528949
2,1, 7,21, 0,16, 0.00,60.00,SummerDesignDay
951,24.0
991,24.000000000000005
1031,24.000000000000019
1071,24.000000000000026
1111,24.0
1151,24.000000000000026
1191,24.000000000000104
1231,24.00000000000003
1271,24.000000000000015
1311,24.00000000000001
1351,24.000000000000055
1391,24.000000000000026
1431,24.000000000000186
1471,23.99999999999997
1511,24.000000000000097
1551,24.000000000000143
1591,24.000000000000033
1631,23.999999999999984
1671,24.00000000000001
1711,24.000000000000026
1751,24.000000000000055
1791,23.999999999999998
2,1, 7,21, 0,17, 0.00,10.00,SummerDesignDay
8,18.316978860635527
10,40359357.500484209
1905,0.0
1942,163404489.0701329
2,1, 7,21, 0,17,10.00,20.00,SummerDesignDay
8,18.2835693630182
10,40359357.500484209
1905,0.0
1942,160389440.62360645
2,1, 7,21, 0,17,20.00,30.00,SummerDesignDay
8,18.250118050746214
10,40359357.500484209
1905,0.0
1942,157354890.69347815
2,1, 7,21, 0,17,30.00,40.00,SummerDesignDay
8,18.216624325548968
10,40359357.500484209
1905,0.0
1942,154246143.43193988
2,1, 7,21, 0,17,40.00,50.00,SummerDesignDay
8,18.183088861944893
10,40359357.500484209
1905,0.0
1942,151049695.87026835
2,1, 7,21, 0,17,50.00,60.00,SummerDesignDay
8,18.149510843493635
10,40359357.500484209
1905,0.0
1942,147802408.53984419
2,1, 7,21, 0,17, 0.00,60.00,SummerDesignDay
951,23.99999999999997
991,24.000000000000026
1031,23.999999999999984
1071,24.000000000000015
1111,24.00000000000007
1151,23.999999999999955
1191,23.999999999999998
1231,24.000000000000005
1271,24.00000000000004
1311,24.000000000000015
1351,24.0
1391,23.999999999999984
1431,24.0
1471,23.999999999999976
1511,24.000000000000087
1551,24.000000000000076
1591,24.00000000000004
1631,24.000000000000047
1671,24.00000000000001
1711,24.000000000000055
1751,23.99999999999999
1791,24.0
2,1, 7,21, 0,18, 0.00,10.00,SummerDesignDay
8,18.10748062898272
10,40359357.500484209
1905,0.0
1942,145606491.20077477
2,1, 7,21, 0,18,10.00,20.00,SummerDesignDay
8,18.065379091048376
10,40359357.500484209
1905,0.0
1942,142340615.8445858
2,1, 7,21, 0,18,20.00,30.00,SummerDesignDay
8,18.023216461654344
10,40359357.500484209
1905,0.0
1942,139090849.6997673
2,1, 7,21, 0,18,30.00,40.00,SummerDesignDay
8,17.980987605947548
10,40359357.500484209
1905,0.0
1942,135691013.36512009
2,1, 7,21, 0,18,40.00,50.00,SummerDesignDay
8,17.93869205826644
10,40359357.500484209
1905,0.0
1942,132319355.34000711
2,1, 7,21, 0,18,50.00,60.00,SummerDesignDay
8,17.89632405402092
10,40359357.500484209
1905,0.0
1942,128775453.0416957
2,1, 7,21, 0,18, 0.00,60.00,SummerDesignDay
951,23.99999999999996
991,24.00000000000001
1031,24.0
1071,23.99999999999999
1111,24.000000000000015
1151,24.00000000000001
1191,24.000000000000026
1231,24.000000000000015
1271,24.000000000000015
1311,24.00000000000001
1351,24.00000000000006
1391,24.00000000000001
1431,23.999999999999969
1471,23.999999999999955
1511,24.000000000000019
1551,24.000000000000047
1591,24.000000000000019
1631,24.00000000000004
1671,24.000000000000015
1711,24.0
1751,24.000000000000019
1791,24.0
2,1, 7,21, 0,19, 0.00,10.00,SummerDesignDay
8,17.832657261722244
10,29526494.616410175
1905,0.0
1942,119301163.67361953
2,1, 7,21, 0,19,10.00,20.00,SummerDesignDay
8,17.768833985856515
10,29526494.616410175
1905,0.0
1942,114604710.88088709
2,1, 7,21, 0,19,20.00,30.00,SummerDesignDay
8,17.704859478274899
10,29526494.616410175
1905,0.0
1942,110284550.70958571
2,1, 7,21, 0,19,30.00,40.00,SummerDesignDay
8,17.640731707059819
10,29526494.616410175
1905,0.0
1942,106079469.78303199
2,1, 7,21, 0,19,40.00,50.00,SummerDesignDay
8,17.576451319157326
10,29526494.616410175
1905,0.0
1942,101993103.3656282
2,1, 7,21, 0,19,50.00,60.00,SummerDesignDay
8,17.512016904905339
10,29526494.616410175
1905,0.0
1942,97942947.78594429
2,1, 7,21, 0,19, 0.00,60.00,SummerDesignDay
951,24.00000000000003
991,24.0
1031,24.000000000000015
1071,24.00000000000004
1111,24.0
1151,23.999999999999976
1191,24.000000000000058
1231,24.00000000000003
1271,24.000000000000026
1311,24.0
1351,23.999999999999987
1391,23.999999999999987
1431,24.000000000000087
1471,24.000000000000033
1511,24.000000000000044
1551,24.000000000000019
1591,24.0
1631,24.000000000000015
1671,24.00000000000001
1711,24.0
1751,24.00000000000001
1791,24.00000000000001
2,1, 7,21, 0,20, 0.00,10.00,SummerDesignDay
8,17.464669750704549
10,26604173.396913459
1905,0.0
1942,75364371.81759297
2,1, 7,21, 0,20,10.00,20.00,SummerDesignDay
8,17.417239543286124
10,26604173.396913459
1905,0.0
1942,72425979.08236467
2,1, 7,21, 0,20,20.00,30.00,SummerDesignDay
8,17.369720602565694
10,26604173.396913459
1905,0.0
1942,69059428.32560902
2,1, 7,21, 0,20,30.00,40.00,SummerDesignDay
8,17.32212315858905
10,26604173.396913459
1905,0.0
1942,65093402.48427448
2,1, 7,21, 0,20,40.00,50.00,SummerDesignDay
8,17.27444149556641
10,26604173.396913459
1905,0.0
1942,60540811.481960888
2,1, 7,21, 0,20,50.00,60.00,SummerDesignDay
8,17.22667133087272
10,26604173.396913459
1905,0.0
1942,55559883.09988437
2,1, 7,21, 0,20, 0.00,60.00,SummerDesignDay
951,24.0
991,24.447227669904405
1031,23.99999999999999
1071,25.21099371501616
1111,25.19113490228071
1151,24.00000000000001
1191,24.00000000000004
1231,24.0
1271,24.000000000000019
1311,24.57290294019735
1351,24.00000000000003
1391,24.000000000000005
1431,24.000000000000058
1471,24.000000000000047
1511,23.99999999999997
1551,23.999999999999987
1591,24.000000000000005
1631,24.00000000000003
1671,24.000000000000015
1711,24.000000000000033
1751,24.0
1791,24.6281714931138
2,1, 7,21, 0,21, 0.00,10.00,SummerDesignDay
8,17.187526559563478
10,29147882.973971826
1905,0.0
1942,52808381.30822748
2,1, 7,21, 0,21,10.00,20.00,SummerDesignDay
8,17.14832575016431