Program Version,EnergyPlus, Version 8.9.0-eba93e8e1b, YMD=2018.09.18 16:56
1,5,Environment Title[],Latitude[deg],Longitude[deg],Time Zone[],Elevation[m]
2,8,Day of Simulation[],Month[],Day of Month[],DST Indicator[1=yes 0=no],Hour[],StartMinute[],EndMinute[],DayType
3,5,Cumulative Day of Simulation[],Month[],Day of Month[],DST Indicator[1=yes 0=no],DayType  ! When Daily Report Variables Requested
4,2,Cumulative Days of Simulation[],Month[]  ! When Monthly Report Variables Requested
5,1,Cumulative Days of Simulation[] ! When Run Period Report Variables Requested
6,1,Calendar Year of Simulation[] ! When Annual Report Variables Requested
7,9,Environment,Site Outdoor Air Drybulb Temperature [C] !Monthly [Value,Min,Day,Hour,Minute,Max,Day,Hour,Minute]
8,1,Environment,Site Outdoor Air Wetbulb Temperature [C] !TimeStep
2166,1,BASEMENT ZN,Zone Air Temperature [C] !Hourly
2167,7,BASEMENT ZN,Zone Air Relative Humidity [%] !Daily [Value,Min,Hour,Minute,Max,Hour,Minute]
2206,1,CORRIDOR_FLR_1 ZN,Zone Air Temperature [C] !Hourly
2207,7,CORRIDOR_FLR_1 ZN,Zone Air Relative Humidity [%] !Daily [Value,Min,Hour,Minute,Max,Hour,Minute]
2246,1,CORRIDOR_FLR_2 ZN,Zone Air Temperature [C] !Hourly
2247,7,CORRIDOR_FLR_2 ZN,Zone Air Relative Humidity [%] !Daily [Value,Min,Hour,Minute,Max,Hour,Minute]
2286,1,CORRIDOR_FLR_5 ZN,Zone Air Temperature [C] !Hourly
2287,7,CORRIDOR_FLR_5 ZN,Zone Air Relative Humidity [%] !Daily [Value,Min,Hour,Minute,Max,Hour,Minute]
2326,1,CORRIDOR_NW_FLR_3 ZN,Zone Air Temperature [C] !Hourly
2327,7,CORRIDOR_NW_FLR_3 ZN,Zone Air Relative Humidity [%] !Daily [Value,Min,Hour,Minute,Max,Hour,Minute]
2366,1,CORRIDOR_NW_FLR_4 ZN,Zone Air Temperature [C] !Hourly
2367,7,CORRIDOR_NW_FLR_4 ZN,Zone Air Relative Humidity [%] !Daily [Value,Min,Hour,Minute,Max,Hour,Minute]
2406,1,CORRIDOR_SE_FLR_3 ZN,Zone Air Temperature [C] !Hourly
2407,7,CORRIDOR_SE_FLR_3 ZN,Zone Air Relative Humidity [%] !Daily [Value,Min,Hour,Minute,Max,Hour,Minute]
2446,1,CORRIDOR_SE_FLR_4 ZN,Zone Air Temperature [C] !Hourly
2447,7,CORRIDOR_SE_FLR_4 ZN,Zone Air Relative Humidity [%] !Daily [Value,Min,Hour,Minute,Max,Hour,Minute]
2486,1,DINING_FLR_5 ZN,Zone Air Temperature [C] !Hourly
2487,7,DINING_FLR_5 ZN,Zone Air Relative Humidity [%] !Daily [Value,Min,Hour,Minute,Max,Hour,Minute]
2526,1,ER_EXAM1_MULT4_FLR_1 ZN,Zone Air Temperature [C] !Hourly
2527,7,ER_EXAM1_MULT4_FLR_1 ZN,Zone Air Relative Humidity [%] !Daily [Value,Min,Hour,Minute,Max,Hour,Minute]
2566,1,ER_EXAM3_MULT4_FLR_1 ZN,Zone Air Temperature [C] !Hourly
2567,7,ER_EXAM3_MULT4_FLR_1 ZN,Zone Air Relative Humidity [%] !Daily [Value,Min,Hour,Minute,Max,Hour,Minute]
2606,1,ER_NURSESTN_LOBBY_FLR_1 ZN,Zone Air Temperature [C] !Hourly
2607,7,ER_NURSESTN_LOBBY_FLR_1 ZN,Zone Air Relative Humidity [%] !Daily [Value,Min,Hour,Minute,Max,Hour,Minute]
2646,1,ER_TRAUMA1_FLR_1 ZN,Zone Air Temperature [C] !Hourly
2647,7,ER_TRAUMA1_FLR_1 ZN,Zone Air Relative Humidity [%] !Daily [Value,Min,Hour,Minute,Max,Hour,Minute]
2686,1,ER_TRAUMA2_FLR_1 ZN,Zone Air Temperature [C] !Hourly
2687,7,ER_TRAUMA2_FLR_1 ZN,Zone Air Relative Humidity [%] !Daily [Value,Min,Hour,Minute,Max,Hour,Minute]
2726,1,ER_TRIAGE_MULT4_FLR_1 ZN,Zone Air Temperature [C] !Hourly
2727,7,ER_TRIAGE_MULT4_FLR_1 ZN,Zone Air Relative Humidity [%] !Daily [Value,Min,Hour,Minute,Max,Hour,Minute]
2766,1,ICU_FLR_2 ZN,Zone Air Temperature [C] !Hourly
2767,7,ICU_FLR_2 ZN,Zone Air Relative Humidity [%] !Daily [Value,Min,Hour,Minute,Max,Hour,Minute]
2806,1,ICU_NURSESTN_LOBBY_FLR_2 ZN,Zone Air Temperature [C] !Hourly
2807,7,ICU_NURSESTN_LOBBY_FLR_2 ZN,Zone Air Relative Humidity [%] !Daily [Value,Min,Hour,Minute,Max,Hour,Minute]
2846,1,IC_PATROOM1_MULT5_FLR_2 ZN,Zone Air Temperature [C] !Hourly
2847,7,IC_PATROOM1_MULT5_FLR_2 ZN,Zone Air Relative Humidity [%] !Daily [Value,Min,Hour,Minute,Max,Hour,Minute]
2886,1,IC_PATROOM2_FLR_2 ZN,Zone Air Temperature [C] !Hourly
2887,7,IC_PATROOM2_FLR_2 ZN,Zone Air Relative Humidity [%] !Daily [Value,Min,Hour,Minute,Max,Hour,Minute]
2926,1,IC_PATROOM3_MULT6_FLR_2 ZN,Zone Air Temperature [C] !Hourly
2927,7,IC_PATROOM3_MULT6_FLR_2 ZN,Zone Air Relative Humidity [%] !Daily [Value,Min,Hour,Minute,Max,Hour,Minute]
2966,1,KITCHEN_FLR_5 ZN,Zone Air Temperature [C] !Hourly
2967,7,KITCHEN_FLR_5 ZN,Zone Air Relative Humidity [%] !Daily [Value,Min,Hour,Minute,Max,Hour,Minute]
3006,1,LAB_FLR_3 ZN,Zone Air Temperature [C] !Hourly
3007,7,LAB_FLR_3 ZN,Zone Air Relative Humidity [%] !Daily [Value,Min,Hour,Minute,Max,Hour,Minute]
3046,1,LAB_FLR_4 ZN,Zone Air Temperature [C] !Hourly
3047,7,LAB_FLR_4 ZN,Zone Air Relative Humidity [%] !Daily [Value,Min,Hour,Minute,Max,Hour,Minute]
3086,1,LOBBY_RECORDS_FLR_1 ZN,Zone Air Temperature [C] !Hourly
3087,7,LOBBY_RECORDS_FLR_1 ZN,Zone Air Relative Humidity [%] !Daily [Value,Min,Hour,Minute,Max,Hour,Minute]
3126,1,NURSESTN_LOBBY_FLR_3 ZN,Zone Air Temperature [C] !Hourly
3127,7,NURSESTN_LOBBY_FLR_3 ZN,Zone Air Relative Humidity [%] !Daily [Value,Min,Hour,Minute,Max,Hour,Minute]
3166,1,NURSESTN_LOBBY_FLR_4 ZN,Zone Air Temperature [C] !Hourly
3167,7,NURSESTN_LOBBY_FLR_4 ZN,Zone Air Relative Humidity [%] !Daily [Value,Min,Hour,Minute,Max,Hour,Minute]
3206,1,NURSESTN_LOBBY_FLR_5 ZN,Zone Air Temperature [C] !Hourly
3207,7,NURSESTN_LOBBY_FLR_5 ZN,Zone Air Relative Humidity [%] !Daily [Value,Min,Hour,Minute,Max,Hour,Minute]
3246,1,OFFICE1_FLR_5 ZN,Zone Air Temperature [C] !Hourly
3247,7,OFFICE1_FLR_5 ZN,Zone Air Relative Humidity [%] !Daily [Value,Min,Hour,Minute,Max,Hour,Minute]
3286,1,OFFICE1_MULT4_FLR_1 ZN,Zone Air Temperature [C] !Hourly
3287,7,OFFICE1_MULT4_FLR_1 ZN,Zone Air Relative Humidity [%] !Daily [Value,Min,Hour,Minute,Max,Hour,Minute]
3326,1,OFFICE2_MULT5_FLR_5 ZN,Zone Air Temperature [C] !Hourly
3327,7,OFFICE2_MULT5_FLR_5 ZN,Zone Air Relative Humidity [%] !Daily [Value,Min,Hour,Minute,Max,Hour,Minute]
3366,1,OFFICE3_FLR_5 ZN,Zone Air Temperature [C] !Hourly
3367,7,OFFICE3_FLR_5 ZN,Zone Air Relative Humidity [%] !Daily [Value,Min,Hour,Minute,Max,Hour,Minute]
3406,1,OFFICE4_MULT6_FLR_5 ZN,Zone Air Temperature [C] !Hourly
3407,7,OFFICE4_MULT6_FLR_5 ZN,Zone Air Relative Humidity [%] !Daily [Value,Min,Hour,Minute,Max,Hour,Minute]
3446,1,OR1_FLR_2 ZN,Zone Air Temperature [C] !Hourly
3447,7,OR1_FLR_2 ZN,Zone Air Relative Humidity [%] !Daily [Value,Min,Hour,Minute,Max,Hour,Minute]
3486,1,OR2_MULT5_FLR_2 ZN,Zone Air Temperature [C] !Hourly
3487,7,OR2_MULT5_FLR_2 ZN,Zone Air Relative Humidity [%] !Daily [Value,Min,Hour,Minute,Max,Hour,Minute]
3526,1,OR3_FLR_2 ZN,Zone Air Temperature [C] !Hourly
3527,7,OR3_FLR_2 ZN,Zone Air Relative Humidity [%] !Daily [Value,Min,Hour,Minute,Max,Hour,Minute]
3566,1,OR4_FLR_2 ZN,Zone Air Temperature [C] !Hourly
3567,7,OR4_FLR_2 ZN,Zone Air Relative Humidity [%] !Daily [Value,Min,Hour,Minute,Max,Hour,Minute]
3606,1,OR_NURSESTN_LOBBY_FLR_2 ZN,Zone Air Temperature [C] !Hourly
3607,7,OR_NURSESTN_LOBBY_FLR_2 ZN,Zone Air Relative Humidity [%] !Daily [Value,Min,Hour,Minute,Max,Hour,Minute]
3646,1,PATROOM1_MULT10_FLR_3 ZN,Zone Air Temperature [C] !Hourly
3647,7,PATROOM1_MULT10_FLR_3 ZN,Zone Air Relative Humidity [%] !Daily [Value,Min,Hour,Minute,Max,Hour,Minute]
3686,1,PATROOM1_MULT10_FLR_4 ZN,Zone Air Temperature [C] !Hourly
3687,7,PATROOM1_MULT10_FLR_4 ZN,Zone Air Relative Humidity [%] !Daily [Value,Min,Hour,Minute,Max,Hour,Minute]
3726,1,PATROOM2_FLR_3 ZN,Zone Air Temperature [C] !Hourly
3727,7,PATROOM2_FLR_3 ZN,Zone Air Relative Humidity [%] !Daily [Value,Min,Hour,Minute,Max,Hour,Minute]
3766,1,PATROOM2_FLR_4 ZN,Zone Air Temperature [C] !Hourly
3767,7,PATROOM2_FLR_4 ZN,Zone Air Relative Humidity [%] !Daily [Value,Min,Hour,Minute,Max,Hour,Minute]
3806,1,PATROOM3_MULT10_FLR_3 ZN,Zone Air Temperature [C] !Hourly
3807,7,PATROOM3_MULT10_FLR_3 ZN,Zone Air Relative Humidity [%] !Daily [Value,Min,Hour,Minute,Max,Hour,Minute]
3846,1,PATROOM3_MULT10_FLR_4 ZN,Zone Air Temperature [C] !Hourly
3847,7,PATROOM3_MULT10_FLR_4 ZN,Zone Air Relative Humidity [%] !Daily [Value,Min,Hour,Minute,Max,Hour,Minute]
3886,1,PATROOM4_FLR_3 ZN,Zone Air Temperature [C] !Hourly
3887,7,PATROOM4_FLR_3 ZN,Zone Air Relative Humidity [%] !Daily [Value,Min,Hour,Minute,Max,Hour,Minute]
3926,1,PATROOM4_FLR_4 ZN,Zone Air Temperature [C] !Hourly
3927,7,PATROOM4_FLR_4 ZN,Zone Air Relative Humidity [%] !Daily [Value,Min,Hour,Minute,Max,Hour,Minute]
3966,1,PATROOM5_MULT10_FLR_3 ZN,Zone Air Temperature [C] !Hourly
3967,7,PATROOM5_MULT10_FLR_3 ZN,Zone Air Relative Humidity [%] !Daily [Value,Min,Hour,Minute,Max,Hour,Minute]
4006,1,PATROOM5_MULT10_FLR_4 ZN,Zone Air Temperature [C] !Hourly
4007,7,PATROOM5_MULT10_FLR_4 ZN,Zone Air Relative Humidity [%] !Daily [Value,Min,Hour,Minute,Max,Hour,Minute]
4046,1,PATROOM6_FLR_3 ZN,Zone Air Temperature [C] !Hourly
4047,7,PATROOM6_FLR_3 ZN,Zone Air Relative Humidity [%] !Daily [Value,Min,Hour,Minute,Max,Hour,Minute]
4086,1,PATROOM6_FLR_4 ZN,Zone Air Temperature [C] !Hourly
4087,7,PATROOM6_FLR_4 ZN,Zone Air Relative Humidity [%] !Daily [Value,Min,Hour,Minute,Max,Hour,Minute]
4126,1,PATROOM7_MULT10_FLR_3 ZN,Zone Air Temperature [C] !Hourly
4127,7,PATROOM7_MULT10_FLR_3 ZN,Zone Air Relative Humidity [%] !Daily [Value,Min,Hour,Minute,Max,Hour,Minute]
4166,1,PATROOM7_MULT10_FLR_4 ZN,Zone Air Temperature [C] !Hourly
4167,7,PATROOM7_MULT10_FLR_4 ZN,Zone Air Relative Humidity [%] !Daily [Value,Min,Hour,Minute,Max,Hour,Minute]
4206,1,PATROOM8_FLR_3 ZN,Zone Air Temperature [C] !Hourly
4207,7,PATROOM8_FLR_3 ZN,Zone Air Relative Humidity [%] !Daily [Value,Min,Hour,Minute,Max,Hour,Minute]
4246,1,PATROOM8_FLR_4 ZN,Zone Air Temperature [C] !Hourly
4247,7,PATROOM8_FLR_4 ZN,Zone Air Relative Humidity [%] !Daily [Value,Min,Hour,Minute,Max,Hour,Minute]
4286,1,PHYSTHERAPY_FLR_3 ZN,Zone Air Temperature [C] !Hourly
4287,7,PHYSTHERAPY_FLR_3 ZN,Zone Air Relative Humidity [%] !Daily [Value,Min,Hour,Minute,Max,Hour,Minute]
4326,1,RADIOLOGY_FLR_4 ZN,Zone Air Temperature [C] !Hourly
4327,7,RADIOLOGY_FLR_4 ZN,Zone Air Relative Humidity [%] !Daily [Value,Min,Hour,Minute,Max,Hour,Minute]
10,1,Electricity:Facility [J] !TimeStep
4477,1,DistrictCooling:Facility [J] !TimeStep
4440,1,DistrictHeating:Facility [J] !TimeStep
End of Data Dictionary
1,VANCOUVER INTL AP ANN CLG .4% CONDNS DB=>MWB,  49.20,-123.18,  -8.00,   4.30
2,1, 7,21, 0, 1, 0.00,10.00,SummerDesignDay
8,16.352199953652215
10,134500962.45124493
4440,0.0
4477,68487026.65724646
2,1, 7,21, 0, 1,10.00,20.00,SummerDesignDay
8,16.3252576442975
10,134500962.45124493
4440,0.0
4477,66326461.76967712
2,1, 7,21, 0, 1,20.00,30.00,SummerDesignDay
8,16.2982938306074
10,134500962.45124493
4440,0.0
4477,64275091.527371179
2,1, 7,21, 0, 1,30.00,40.00,SummerDesignDay
8,16.271298954341999
10,134500962.45124493
4440,0.0
4477,62246453.02234316
2,1, 7,21, 0, 1,40.00,50.00,SummerDesignDay
8,16.244276700157607
10,134500962.45124493
4440,0.0
4477,60233521.698945607
2,1, 7,21, 0, 1,50.00,60.00,SummerDesignDay
8,16.217228272321866
10,134500962.45124493
4440,0.0
4477,58235716.78650631
2,1, 7,21, 0, 1, 0.00,60.00,SummerDesignDay
2166,22.310098995955923
2206,24.00000000000001
2246,24.000000000000005
2286,24.000000000000005
2326,24.000000000000019
2366,24.000000000000019
2406,24.000000000000026
2446,24.000000000000015
2486,22.18493937992031
2526,24.000000000000033
2566,23.999999999999998
2606,24.000000000000019
2646,24.000000000000019
2686,24.000000000000047
2726,23.99999999999999
2766,23.19997407572747
2806,24.000000000000015
2846,24.00000000000001
2886,24.000000000000005
2926,24.00000000000001
2966,24.00000000000003
3006,23.357419175026867
3046,23.213689965838996
3086,25.34642534878344
3126,24.000000000000026
3166,24.000000000000033
3206,23.85893121905238
3246,23.861449680541218
3286,24.217594408175417
3326,23.726541875935955
3366,23.628769191009796
3406,23.31337776089087
3446,23.99999999999996
3486,24.000000000000033
3526,23.999999999999944
3566,23.89206776682912
3606,23.999999999999998
3646,24.00000000000001
3686,24.000000000000026
3726,24.0
3766,24.00000000000003
3806,24.000000000000005
3846,24.00000000000004
3886,24.000000000000026
3926,24.000000000000047
3966,24.000000000000019
4006,24.000000000000019
4046,24.000000000000015
4086,23.99999999999999
4126,23.99999999999999
4166,24.000000000000019
4206,23.999999999999976
4246,23.99999999999999
4286,22.931078523096479
4326,24.000000000000058
2,1, 7,21, 0, 2, 0.00,10.00,SummerDesignDay
8,16.199184445315237
10,117205014.4958545
4440,1870240.832950974
4477,25178736.615157688
2,1, 7,21, 0, 2,10.00,20.00,SummerDesignDay
8,16.181123823551326
10,117205014.4958545
4440,2254371.303437977
4477,23914553.385062234
2,1, 7,21, 0, 2,20.00,30.00,SummerDesignDay
8,16.163056857826836
10,117205014.4958545
4440,2552417.2491115389
4477,22681134.6658066
2,1, 7,21, 0, 2,30.00,40.00,SummerDesignDay
8,16.144971888810827
10,117205014.4958545
4440,2774889.7509273125
4477,21493960.349604224
2,1, 7,21, 0, 2,40.00,50.00,SummerDesignDay
8,16.12688104636919
10,117205014.4958545
4440,2975236.6386060027
4477,20346938.44546658
2,1, 7,21, 0, 2,50.00,60.00,SummerDesignDay
8,16.108773026303486
10,117205014.4958545
4440,3158472.6159258896
4477,19219941.932656
2,1, 7,21, 0, 2, 0.00,60.00,SummerDesignDay
2166,22.049491494523165
2206,24.98043245857036
2246,25.008962532469977
2286,24.3942184544923
2326,24.957726711182138
2366,24.954003765815839
2406,24.975143567105787
2446,24.98368921796867
2486,22.00015826684054
2526,24.0
2566,24.0
2606,23.999999999999998
2646,24.000000000000026
2686,24.00000000000003
2726,24.0
2766,22.941129007622114
2806,24.000000000000015
2846,24.000000000000026
2886,24.000000000000005
2926,24.00000000000001
2966,24.024956808550784
3006,23.177369042114653
3046,23.03024625898607
3086,25.187201608310678
3126,24.0
3166,24.0
3206,23.653150688476658
3246,23.554258270476283
3286,24.056715267015006
3326,23.30186758599864
3366,23.281989671833516
3406,22.978588223423697
3446,24.000000000000005
3486,24.000000000000005
3526,23.994027922828434
3566,23.6979928648765
3606,24.000000000000005
3646,24.000000000000015
3686,24.00000000000001
3726,24.000000000000005
3766,24.00000000000001
3806,24.000000000000019
3846,24.000000000000005
3886,24.000000000000015
3926,24.000000000000015
3966,24.00000000000001
4006,24.000000000000015
4046,24.000000000000019
4086,24.000000000000015
4126,24.00000000000001
4166,24.00000000000001
4206,24.000000000000005
4246,24.00000000000003
4286,22.74902180792768
4326,24.000000000000026
2,1, 7,21, 0, 3, 0.00,10.00,SummerDesignDay
8,16.095187997840726
10,99909066.54046408
4440,0.0
4477,18301223.081996826
2,1, 7,21, 0, 3,10.00,20.00,SummerDesignDay
8,16.08159647937563
10,99909066.54046408
4440,0.0
4477,17371118.850574007
2,1, 7,21, 0, 3,20.00,30.00,SummerDesignDay
8,16.067992103020477
10,99909066.54046408
4440,0.0
4477,16426724.440573413
2,1, 7,21, 0, 3,30.00,40.00,SummerDesignDay
8,16.054387489767213
10,99909066.54046408
4440,0.0
4477,15475284.43003525
2,1, 7,21, 0, 3,40.00,50.00,SummerDesignDay
8,16.040775235496488
10,99909066.54046408
4440,0.0
4477,14523708.154060016
2,1, 7,21, 0, 3,50.00,60.00,SummerDesignDay
8,16.027151463515208
10,99909066.54046408
4440,0.0
4477,13587351.658565205
2,1, 7,21, 0, 3, 0.00,60.00,SummerDesignDay
2166,21.839328450821119
2206,25.072169302066798
2246,25.141575997241664
2286,24.11816246811435
2326,25.054764283385045
2366,25.047828137760488
2406,25.080146909070647
2446,25.077534754717715
2486,20.783100628158225
2526,24.000000000000058
2566,24.000000000000058
2606,24.00000000000001
2646,23.998587952327399
2686,23.997034586397164
2726,24.000000000000015
2766,22.740133837780957
2806,24.000000000000015
2846,24.0
2886,24.000000000000019
2926,24.000000000000019
2966,22.929963841803717
3006,23.038524166825103
3046,22.889107362611616
3086,25.038775996311558
3126,23.99999999999999
3166,24.000000000000015
3206,23.453397176232646
3246,23.262693284855947
3286,23.891730135224234
3326,22.886342597337288
3366,22.960354113721125
3406,22.64915756688759
3446,23.964552387771936
3486,24.000000000000047
3526,23.909944686069676
3566,23.552853335477179
3606,24.000000000000005
3646,23.99999999999999
3686,24.0
3726,24.000000000000026
3766,24.000000000000015
3806,24.00000000000001
3846,24.0
3886,24.00000000000004
3926,24.00000000000003
3966,23.999999999999998
4006,24.000000000000015
4046,24.000000000000015
4086,24.0
4126,23.99999999999999
4166,24.000000000000026
4206,23.999999999999998
4246,24.0
4286,22.609767396353339
4326,24.0
2,1, 7,21, 0, 4, 0.00,10.00,SummerDesignDay
8,16.013526309671386
10,99909066.54046408
4440,0.0
4477,12656337.211604655
2,1, 7,21, 0, 4,10.00,20.00,SummerDesignDay
8,15.999888590638458
10,99909066.54046408
4440,0.0
4477,11726582.765890629
2,1, 7,21, 0, 4,20.00,30.00,SummerDesignDay
8,15.986249958378048
10,99909066.54046408
4440,0.0
4477,10797981.991327826
2,1, 7,21, 0, 4,30.00,40.00,SummerDesignDay
8,15.972604339068287
10,99909066.54046408
4440,0.0
4477,9914838.931015395
2,1, 7,21, 0, 4,40.00,50.00,SummerDesignDay
8,15.958946698244901
10,99909066.54046408
4440,0.0
4477,9142586.503989354
2,1, 7,21, 0, 4,50.00,60.00,SummerDesignDay
8,15.945287702730492
10,99909066.54046408
4440,0.0
4477,8370685.240039861
2,1, 7,21, 0, 4, 0.00,60.00,SummerDesignDay
2166,21.649213883522877
2206,24.891481909360626
2246,25.001454020790594
2286,23.73573100784885
2326,24.938682158304375
2366,24.910388394712638
2406,24.964179395866265
2446,24.931788767923395
2486,20.098333911617755
2526,23.99999999999997
2566,24.0
2606,23.995240509457017
2646,23.922471697476227
2686,23.916107358892835
2726,23.988531426985916
2766,22.55852000378754
2806,23.99999999999999
2846,24.00000000000001
2886,24.000000000000015
2926,24.000000000000015
2966,22.089006085328135
3006,22.902759156051859
3046,22.747447391342634
3086,24.88712073971196
3126,24.000000000000026
3166,23.99999999999999
3206,23.233533770335187
3246,22.96560284814477
3286,23.719573569685268
3326,22.47527382156864
3366,22.650257266000567
3406,22.321714383705268
3446,23.846439230811784
3486,23.99999999999996
3526,23.783838431384937
3566,23.41598083331661
3606,24.000000000000026
3646,24.000000000000019
3686,23.999999999999998
3726,24.00000000000004
3766,24.00000000000001
3806,24.000000000000005
3846,23.999999999999987
3886,23.99999999999999
3926,23.999999999999984
3966,24.000000000000019
4006,23.999999999999984
4046,24.000000000000033
4086,24.00000000000001
4126,24.00000000000003
4166,23.99999999999999
4206,24.0
4246,24.000000000000019
4286,22.480025872197488
4326,24.000000000000047
2,1, 7,21, 0, 5, 0.00,10.00,SummerDesignDay
8,15.936177990809899
10,99909066.54046408
4440,0.0
4477,7772403.299954567
2,1, 7,21, 0, 5,10.00,20.00,SummerDesignDay
8,15.92705949178547
10,99909066.54046408
4440,0.0
4477,7240987.120709775
2,1, 7,21, 0, 5,20.00,30.00,SummerDesignDay
8,15.917943710706878
10,99909066.54046408
4440,0.0
4477,6764891.169942187
2,1, 7,21, 0, 5,30.00,40.00,SummerDesignDay
8,15.908825155859729
10,99909066.54046408
4440,0.0
4477,7262502.374883942
2,1, 7,21, 0, 5,40.00,50.00,SummerDesignDay
8,15.89970321878413
10,99909066.54046408
4440,0.0
4477,8319331.34578993
2,1, 7,21, 0, 5,50.00,60.00,SummerDesignDay
8,15.89058503181825
10,99909066.54046408
4440,0.0
4477,10042848.235843128
2,1, 7,21, 0, 5, 0.00,60.00,SummerDesignDay
2166,21.481137522383479
2206,24.791374358351108
2246,24.939755858555555
2286,23.489140046750437
2326,24.88751793574255
2366,24.82596051115191
2406,24.907891017304509
2446,24.836788217526249
2486,19.781906916711937
2526,23.998717138446748
2566,23.998949897805536
2606,23.940192662101294
2646,23.801189323843159
2686,23.798382523373847
2726,23.91831273178501
2766,22.401697302679556
2806,24.0
2846,24.00000000000004
2886,24.0
2926,24.0
2966,21.682729003863398
3006,22.780738776403905
3046,22.61555397351057
3086,24.746861908695434
3126,23.99026554384109
3166,23.978564225588646
3206,23.051388941389467
3246,22.70795304986449
3286,23.554901652518145
3326,22.102387377971515
3366,22.433663507480607
3406,22.056282084845479
3446,23.726664557612865
3486,23.99380651003737
3526,23.662180084744667
3566,23.297296934599335
3606,24.000000000000015
3646,24.00000000000001
3686,24.000000000000015
3726,24.00000000000004
3766,24.000000000000015
3806,24.00000000000001
3846,23.999999999999998
3886,24.000000000000026
3926,24.0
3966,24.000000000000005
4006,24.0
4046,24.000000000000019
4086,24.0
4126,24.0
4166,24.000000000000015
4206,24.00000000000003
4246,24.000000000000019
4286,22.36600889638804
4326,24.000000000000047
2,1, 7,21, 0, 6, 0.00,10.00,SummerDesignDay
8,15.89970321878413
10,99909066.54046408
4440,0.0
4477,12559630.943578566
2,1, 7,21, 0, 6,10.00,20.00,SummerDesignDay
8,15.908825155859729
10,99909066.54046408
4440,0.0
4477,15349513.093201068
2,1, 7,21, 0, 6,20.00,30.00,SummerDesignDay
8,15.917943710706878
10,99909066.54046408
4440,0.0
4477,18032705.316993767
2,1, 7,21, 0, 6,30.00,40.00,SummerDesignDay
8,15.92705949178547
10,99909066.54046408
4440,0.0
4477,20850969.968680566
2,1, 7,21, 0, 6,40.00,50.00,SummerDesignDay
8,15.936177990809899
10,99909066.54046408
4440,0.0
4477,24110442.78870142
2,1, 7,21, 0, 6,50.00,60.00,SummerDesignDay
8,15.945287702730492
10,99909066.54046408
4440,0.0
4477,27308996.981912879
2,1, 7,21, 0, 6, 0.00,60.00,SummerDesignDay
2166,21.397578129252286
2206,24.719717653117056
2246,24.89994983615779
2286,23.394093188543154
2326,24.856958144307894
2366,24.75842719759073
2406,24.870320831801349
2446,24.75627519603538
2486,19.74887992336246
2526,23.998231564222235
2566,23.99869265321287
2606,23.996333419363777
2646,23.7415366851491
2686,23.74213763263086
2726,23.890832461090569
2766,22.353538923992109
2806,24.00000000000003
2846,24.0
2886,24.000000000000019
2926,24.00000000000001
2966,21.563780188973479
3006,22.714863817210526
3046,22.537435387062798
3086,24.650338439284395
3126,23.973287752009296
3166,23.936013558362686
3206,23.049262087348649
3246,22.728284726002017
3286,23.47525519517882
3326,21.89894123569378
3366,22.843175524285504
3406,22.24808311677357
3446,23.687036897032944
3486,23.991256998766443
3526,23.615828656643385
3566,23.267185650009354
3606,23.999999999999984
3646,23.99999999999999
3686,24.000000000000019
3726,23.99999999999999
3766,24.000000000000055
3806,24.00000000000003
3846,24.000000000000044
3886,24.0
3926,24.00000000000003
3966,24.00000000000003
4006,24.000000000000026
4046,24.000000000000033
4086,23.999999999999984
4126,24.000000000000026
4166,24.000000000000015
4206,23.999999999999976
4246,24.0
4286,22.314454421347933
4326,24.00000000000003
2,1, 7,21, 0, 7, 0.00,10.00,SummerDesignDay
8,15.977153459569559
10,99909066.54046408
4440,0.0
4477,44736262.60144685
2,1, 7,21, 0, 7,10.00,20.00,SummerDesignDay
8,16.00898303120887
10,99909066.54046408
4440,0.0
4477,35223803.78482284
2,1, 7,21, 0, 7,20.00,30.00,SummerDesignDay
8,16.040775235496488
10,99909066.54046408
4440,0.0
4477,39124924.49807248
2,1, 7,21, 0, 7,30.00,40.00,SummerDesignDay
8,16.072525945973774
10,99909066.54046408
4440,0.0
4477,47239225.974926058
2,1, 7,21, 0, 7,40.00,50.00,SummerDesignDay
8,16.104245538982189
10,99909066.54046408
4440,0.0
4477,49236308.65231992
2,1, 7,21, 0, 7,50.00,60.00,SummerDesignDay
8,16.135928228205914
10,99909066.54046408
4440,0.0
4477,50164061.92373175
2,1, 7,21, 0, 7, 0.00,60.00,SummerDesignDay
2166,21.477895422282147
2206,24.69446283510567
2246,24.89723565687738
2286,23.539014267298275
2326,24.85903951471161
2366,24.72744619802488
2406,24.865802684946475
2446,24.713695879663989
2486,20.06460249643816
2526,23.99999996727882
2566,23.999999982746137
2606,23.999999999504995
2646,23.821256341195313
2686,23.824709543988694
2726,23.972483937330379
2766,22.496030780340019
2806,24.000000000000019
2846,24.000000000000026
2886,24.000000000000005
2926,24.000000000000026
2966,21.789067374345025
3006,22.760603067439424
3046,22.57265880296472
3086,23.91248128349983
3126,23.99846208740883
3166,23.977911305934794
3206,23.32316679917055
3246,23.095235517253454
3286,23.519567022607548
3326,21.98434903767497
3366,23.330332817248747
3406,22.55085140410361
3446,23.8231447768093
3486,23.999999194695407
3526,23.727896497504557
3566,23.406446498242855
3606,23.999999999999998
3646,24.00000000000003
3686,24.000000000000015
3726,24.000000000000005
3766,24.000000000000076
3806,24.00000000000007
3846,23.999999999999944
3886,24.000000000000047
3926,24.000000000000019
3966,24.000000000000015
4006,24.0
4046,24.00000000000004
4086,24.000000000000019
4126,24.00000000000001
4166,24.000000000000026
4206,24.00000000000001
4246,24.000000000000019
4286,22.386471942751386
4326,23.99999999999997
2,1, 7,21, 0, 8, 0.00,10.00,SummerDesignDay
8,16.212718231329928
10,118577858.13928811
4440,6657259.121115684
4477,57180547.21143257
2,1, 7,21, 0, 8,10.00,20.00,SummerDesignDay
8,16.289295095914626
10,118577858.13928811
4440,0.0
4477,62229948.03384689
2,1, 7,21, 0, 8,20.00,30.00,SummerDesignDay
8,16.365658732225424
10,118577858.13928811
4440,0.0
4477,67495268.6976347
2,1, 7,21, 0, 8,30.00,40.00,SummerDesignDay
8,16.44181049723187
10,118577858.13928811
4440,0.0
4477,72517945.07870688
2,1, 7,21, 0, 8,40.00,50.00,SummerDesignDay
8,16.517756147764346
10,118577858.13928811
4440,0.0
4477,79222982.382842
2,1, 7,21, 0, 8,50.00,60.00,SummerDesignDay
8,16.593486849767513
10,118577858.13928811
4440,0.0
4477,85075741.02856912
2,1, 7,21, 0, 8, 0.00,60.00,SummerDesignDay
2166,22.420286948791344
2206,24.715828745224234
2246,24.949177504715136
2286,23.90616005259442
2326,24.907682333900639
2366,24.747461826557055
2406,24.90888668355015
2446,24.72499342809634
2486,20.784083805686337
2526,23.999999999999934
2566,23.999999999999916
2606,24.000000000000005
2646,23.988014902134116
2686,23.989102070422037
2726,23.99999817732869
2766,22.950266008915717
2806,24.000000000000026
2846,24.000000000000019
2886,23.999999999999987
2926,24.00000000000003
2966,22.338267503398883
3006,23.281921669575686
3046,23.09149221492412
3086,23.99999999642772
3126,23.99999999988212
3166,23.999999828379747
3206,23.828141702670498
3246,23.852325266583937
3286,23.86254178904011
3326,22.61268272478431
3366,23.934419327621474
3406,23.08130040454618
3446,23.995810325844677
3486,23.99999999999638
3526,23.969687468782355
3566,23.807250819524996
3606,24.000000000000015
3646,24.00000000000003
3686,24.000000000000019
3726,24.00000000000001
3766,24.000000000000047
3806,24.000000000000104
3846,24.000000000000026
3886,24.00000000000004
3926,24.000000000000026
3966,24.000000000000019
4006,24.00000000000003
4046,24.000000000000044
4086,24.000000000000033
4126,24.000000000000019
4166,24.00000000000004
4206,24.00000000000004
4246,23.999999999999998
4286,22.660719620852335
4326,23.99999999999999
2,1, 7,21, 0, 9, 0.00,10.00,SummerDesignDay
8,16.677878063199516
10,172575958.5918978
4440,0.0
4477,143717036.76291985
2,1, 7,21, 0, 9,10.00,20.00,SummerDesignDay
8,16.76200946235728
10,172575958.5918978
4440,0.0
4477,126135929.39605934
2,1, 7,21, 0, 9,20.00,30.00,SummerDesignDay
8,16.845887031033866
10,172575958.5918978
4440,0.0
4477,146528033.49298076
2,1, 7,21, 0, 9,30.00,40.00,SummerDesignDay
8,16.929502190751337
10,172575958.5918978
4440,0.0
4477,155122410.5348503
2,1, 7,21, 0, 9,40.00,50.00,SummerDesignDay
8,17.012861351115086
10,172575958.5918978
4440,0.0
4477,167664929.87863098
2,1, 7,21, 0, 9,50.00,60.00,SummerDesignDay
8,17.09597057951627
10,172575958.5918978
4440,0.0
4477,178470047.0030118
2,1, 7,21, 0, 9, 0.00,60.00,SummerDesignDay
2166,23.839154488951153
2206,23.95947668076899
2246,23.950671897122079
2286,23.997687926384356
2326,23.954877749522365
2366,23.96083658331676
2406,23.954868961889873
2446,23.96149923345455
2486,21.841581262375667
2526,24.0
2566,24.000000000000026
2606,24.00000000000001
2646,23.999999965689196
2686,23.999999970176636
2726,23.999999999998239
2766,23.657662320426807
2806,23.999999999999998
2846,24.00000000000001
2886,24.00000000000003
2926,24.000000000000019
2966,23.13732559670275
3006,23.97624046071351
3046,23.945099190806748
3086,24.000000000000015
3126,24.000000000000005
3166,24.000000000000019
3206,23.999999494202528
3246,23.999999998910256
3286,23.999999938251013
3326,23.831658115821339
3366,23.999999999950718
3406,23.92690331459683
3446,23.999999994631727
3486,24.000000000000019
3526,23.9999997784525
3566,23.999981141526559
3606,24.000000000000015
3646,24.000000000000033
3686,24.0
3726,24.000000000000015
3766,24.000000000000019
3806,23.999999999999987
3846,24.0
3886,24.00000000000003
3926,24.0
3966,24.000000000000005
4006,24.00000000000003
4046,24.00000000000001
4086,24.000000000000026
4126,24.000000000000019
4166,24.00000000000001
4206,24.000000000000019
4246,24.000000000000019
4286,23.528044326678779
4326,24.0
2,1, 7,21, 0,10, 0.00,10.00,SummerDesignDay
8,17.17011313897211
10,202431423.93177579
4440,0.0
4477,206757390.25197033
2,1, 7,21, 0,10,10.00,20.00,SummerDesignDay
8,17.24405314489198
10,202431423.93177579
4440,0.0
4477,223392549.62473799
2,1, 7,21, 0,10,20.00,30.00,SummerDesignDay
8,17.317792342150307
10,202431423.93177579
4440,0.0
4477,234561469.61392979
2,1, 7,21, 0,10,30.00,40.00,SummerDesignDay
8,17.391330750865035
10,202431423.93177579
4440,0.0
4477,245459264.01336596
2,1, 7,21, 0,10,40.00,50.00,SummerDesignDay
8,17.464669750704549
10,202431423.93177579
4440,0.0
4477,256865537.83138535
2,1, 7,21, 0,10,50.00,60.00,SummerDesignDay
8,17.537810589481837
10,202431423.93177579
4440,0.0
4477,270264102.09143099
2,1, 7,21, 0,10, 0.00,60.00,SummerDesignDay
2166,23.999999063524965
2206,24.000000000000005
2246,23.999999999999998
2286,24.000000000000019
2326,23.999999999999984
2366,24.00000000000001
2406,23.999999999999998
2446,24.0
2486,23.476351664361148
2526,24.000000000000015
2566,24.000000000000015
2606,24.0
2646,23.999999999999959
2686,23.99999999999999
2726,23.999999999999998
2766,23.999702584097635
2806,23.999999999999998
2846,24.000000000000015
2886,24.000000000000019
2926,24.000000000000019
2966,23.97817950179302
3006,23.999999999226334
3046,23.99999999638445
3086,23.999999999999998
3126,24.0
3166,24.000000000000019
3206,24.00000000000001
3246,24.000000000000015
3286,24.000000000000015
3326,23.99999999902454
3366,24.00000000000001
3406,23.99999999994048
3446,24.000000000000019
3486,23.999999999999987
3526,23.999999999999969
3566,23.99999999999091
3606,24.000000000000015