Program Version,EnergyPlus, Version 8.9.0-eba93e8e1b, YMD=2018.09.18 16:58
1,5,Environment Title[],Latitude[deg],Longitude[deg],Time Zone[],Elevation[m]
2,8,Day of Simulation[],Month[],Day of Month[],DST Indicator[1=yes 0=no],Hour[],StartMinute[],EndMinute[],DayType
3,5,Cumulative Day of Simulation[],Month[],Day of Month[],DST Indicator[1=yes 0=no],DayType  ! When Daily Report Variables Requested
4,2,Cumulative Days of Simulation[],Month[]  ! When Monthly Report Variables Requested
5,1,Cumulative Days of Simulation[] ! When Run Period Report Variables Requested
6,1,Calendar Year of Simulation[] ! When Annual Report Variables Requested
7,9,Environment,Site Outdoor Air Drybulb Temperature [C] !Monthly [Value,Min,Day,Hour,Minute,Max,Day,Hour,Minute]
8,1,Environment,Site Outdoor Air Wetbulb Temperature [C] !TimeStep
2364,1,SP-BASEMENT SYS-3 FLR-1 SCH-A HPLCMT-NORTH ZN,Zone Air Temperature [C] !Hourly
2365,7,SP-BASEMENT SYS-3 FLR-1 SCH-A HPLCMT-NORTH ZN,Zone Air Relative Humidity [%] !Daily [Value,Min,Hour,Minute,Max,Hour,Minute]
2404,1,SP-CORRIDOR_FLR_1 SYS-3 FLR-2 SCH-B HPLCMT-NORTH ZN,Zone Air Temperature [C] !Hourly
2405,7,SP-CORRIDOR_FLR_1 SYS-3 FLR-2 SCH-B HPLCMT-NORTH ZN,Zone Air Relative Humidity [%] !Daily [Value,Min,Hour,Minute,Max,Hour,Minute]
2444,1,SP-CORRIDOR_FLR_2 SYS-3 FLR-3 SCH-B HPLCMT-NORTH ZN,Zone Air Temperature [C] !Hourly
2445,7,SP-CORRIDOR_FLR_2 SYS-3 FLR-3 SCH-B HPLCMT-NORTH ZN,Zone Air Relative Humidity [%] !Daily [Value,Min,Hour,Minute,Max,Hour,Minute]
2484,1,SP-CORRIDOR_FLR_5 SYS-3 FLR-7 SCH-B HPLCMT-NORTH ZN,Zone Air Temperature [C] !Hourly
2485,7,SP-CORRIDOR_FLR_5 SYS-3 FLR-7 SCH-B HPLCMT-NORTH ZN,Zone Air Relative Humidity [%] !Daily [Value,Min,Hour,Minute,Max,Hour,Minute]
2524,1,SP-CORRIDOR_NW_FLR_3 SYS-3 FLR-4 SCH-B HPLCMT-NORTH ZN,Zone Air Temperature [C] !Hourly
2525,7,SP-CORRIDOR_NW_FLR_3 SYS-3 FLR-4 SCH-B HPLCMT-NORTH ZN,Zone Air Relative Humidity [%] !Daily [Value,Min,Hour,Minute,Max,Hour,Minute]
2564,1,SP-CORRIDOR_NW_FLR_4 SYS-3 FLR-5 SCH-B HPLCMT-NORTH ZN,Zone Air Temperature [C] !Hourly
2565,7,SP-CORRIDOR_NW_FLR_4 SYS-3 FLR-5 SCH-B HPLCMT-NORTH ZN,Zone Air Relative Humidity [%] !Daily [Value,Min,Hour,Minute,Max,Hour,Minute]
2604,1,SP-CORRIDOR_SE_FLR_3 SYS-3 FLR-4 SCH-B HPLCMT-SOUTH ZN,Zone Air Temperature [C] !Hourly
2605,7,SP-CORRIDOR_SE_FLR_3 SYS-3 FLR-4 SCH-B HPLCMT-SOUTH ZN,Zone Air Relative Humidity [%] !Daily [Value,Min,Hour,Minute,Max,Hour,Minute]
2644,1,SP-CORRIDOR_SE_FLR_4 SYS-3 FLR-5 SCH-B HPLCMT-SOUTH ZN,Zone Air Temperature [C] !Hourly
2645,7,SP-CORRIDOR_SE_FLR_4 SYS-3 FLR-5 SCH-B HPLCMT-SOUTH ZN,Zone Air Relative Humidity [%] !Daily [Value,Min,Hour,Minute,Max,Hour,Minute]
2684,1,SP-DINING_FLR_5 SYS-3 FLR-7 SCH-B HPLCMT-SOUTH ZN,Zone Air Temperature [C] !Hourly
2685,7,SP-DINING_FLR_5 SYS-3 FLR-7 SCH-B HPLCMT-SOUTH ZN,Zone Air Relative Humidity [%] !Daily [Value,Min,Hour,Minute,Max,Hour,Minute]
2724,1,SP-ER_EXAM1_MULT4_FLR_1 SYS-3 FLR-2 SCH-H HPLCMT-SOUTH ZN,Zone Air Temperature [C] !Hourly
2725,7,SP-ER_EXAM1_MULT4_FLR_1 SYS-3 FLR-2 SCH-H HPLCMT-SOUTH ZN,Zone Air Relative Humidity [%] !Daily [Value,Min,Hour,Minute,Max,Hour,Minute]
2764,1,SP-ER_EXAM3_MULT4_FLR_1 SYS-3 FLR-2 SCH-H HPLCMT-EAST ZN,Zone Air Temperature [C] !Hourly
2765,7,SP-ER_EXAM3_MULT4_FLR_1 SYS-3 FLR-2 SCH-H HPLCMT-EAST ZN,Zone Air Relative Humidity [%] !Daily [Value,Min,Hour,Minute,Max,Hour,Minute]
2804,1,SP-ER_NURSESTN_LOBBY_FLR_1 SYS-3 FLR-2 SCH-H HPLCMT-EAST ZN,Zone Air Temperature [C] !Hourly
2805,7,SP-ER_NURSESTN_LOBBY_FLR_1 SYS-3 FLR-2 SCH-H HPLCMT-EAST ZN,Zone Air Relative Humidity [%] !Daily [Value,Min,Hour,Minute,Max,Hour,Minute]
2844,1,SP-ER_TRAUMA1_FLR_1 SYS-3 FLR-2 SCH-H HPLCMT-SOUTH ZN,Zone Air Temperature [C] !Hourly
2845,7,SP-ER_TRAUMA1_FLR_1 SYS-3 FLR-2 SCH-H HPLCMT-SOUTH ZN,Zone Air Relative Humidity [%] !Daily [Value,Min,Hour,Minute,Max,Hour,Minute]
2884,1,SP-ER_TRAUMA2_FLR_1 SYS-3 FLR-2 SCH-H HPLCMT-NORTH ZN,Zone Air Temperature [C] !Hourly
2885,7,SP-ER_TRAUMA2_FLR_1 SYS-3 FLR-2 SCH-H HPLCMT-NORTH ZN,Zone Air Relative Humidity [%] !Daily [Value,Min,Hour,Minute,Max,Hour,Minute]
2924,1,SP-ER_TRIAGE_MULT4_FLR_1 SYS-3 FLR-2 SCH-H HPLCMT-NORTH ZN,Zone Air Temperature [C] !Hourly
2925,7,SP-ER_TRIAGE_MULT4_FLR_1 SYS-3 FLR-2 SCH-H HPLCMT-NORTH ZN,Zone Air Relative Humidity [%] !Daily [Value,Min,Hour,Minute,Max,Hour,Minute]
2964,1,SP-ICU_FLR_2 SYS-3 FLR-3 SCH-H HPLCMT-SOUTH ZN,Zone Air Temperature [C] !Hourly
2965,7,SP-ICU_FLR_2 SYS-3 FLR-3 SCH-H HPLCMT-SOUTH ZN,Zone Air Relative Humidity [%] !Daily [Value,Min,Hour,Minute,Max,Hour,Minute]
3004,1,SP-ICU_NURSESTN_LOBBY_FLR_2 SYS-3 FLR-3 SCH-H HPLCMT-CORE ZN,Zone Air Temperature [C] !Hourly
3005,7,SP-ICU_NURSESTN_LOBBY_FLR_2 SYS-3 FLR-3 SCH-H HPLCMT-CORE ZN,Zone Air Relative Humidity [%] !Daily [Value,Min,Hour,Minute,Max,Hour,Minute]
3044,1,SP-IC_PATROOM1_MULT5_FLR_2 SYS-3 FLR-3 SCH-H HPLCMT-NORTH ZN,Zone Air Temperature [C] !Hourly
3045,7,SP-IC_PATROOM1_MULT5_FLR_2 SYS-3 FLR-3 SCH-H HPLCMT-NORTH ZN,Zone Air Relative Humidity [%] !Daily [Value,Min,Hour,Minute,Max,Hour,Minute]
3084,1,SP-IC_PATROOM2_FLR_2 SYS-3 FLR-3 SCH-H HPLCMT-NORTH ZN,Zone Air Temperature [C] !Hourly
3085,7,SP-IC_PATROOM2_FLR_2 SYS-3 FLR-3 SCH-H HPLCMT-NORTH ZN,Zone Air Relative Humidity [%] !Daily [Value,Min,Hour,Minute,Max,Hour,Minute]
3124,1,SP-IC_PATROOM3_MULT6_FLR_2 SYS-3 FLR-3 SCH-H HPLCMT-WEST ZN,Zone Air Temperature [C] !Hourly
3125,7,SP-IC_PATROOM3_MULT6_FLR_2 SYS-3 FLR-3 SCH-H HPLCMT-WEST ZN,Zone Air Relative Humidity [%] !Daily [Value,Min,Hour,Minute,Max,Hour,Minute]
3164,1,SP-KITCHEN_FLR_5 SYS-3 FLR-7 SCH-B HPLCMT-NORTH ZN,Zone Air Temperature [C] !Hourly
3165,7,SP-KITCHEN_FLR_5 SYS-3 FLR-7 SCH-B HPLCMT-NORTH ZN,Zone Air Relative Humidity [%] !Daily [Value,Min,Hour,Minute,Max,Hour,Minute]
3204,1,SP-LAB_FLR_3 SYS-3 FLR-4 SCH-A HPLCMT-CORE ZN,Zone Air Temperature [C] !Hourly
3205,7,SP-LAB_FLR_3 SYS-3 FLR-4 SCH-A HPLCMT-CORE ZN,Zone Air Relative Humidity [%] !Daily [Value,Min,Hour,Minute,Max,Hour,Minute]
3244,1,SP-LAB_FLR_4 SYS-3 FLR-5 SCH-A HPLCMT-CORE ZN,Zone Air Temperature [C] !Hourly
3245,7,SP-LAB_FLR_4 SYS-3 FLR-5 SCH-A HPLCMT-CORE ZN,Zone Air Relative Humidity [%] !Daily [Value,Min,Hour,Minute,Max,Hour,Minute]
3284,1,SP-LOBBY_RECORDS_FLR_1 SYS-6 FLR-2 SCH-A HPLCMT-WEST ZN,Zone Air Temperature [C] !Hourly
3285,7,SP-LOBBY_RECORDS_FLR_1 SYS-6 FLR-2 SCH-A HPLCMT-WEST ZN,Zone Air Relative Humidity [%] !Daily [Value,Min,Hour,Minute,Max,Hour,Minute]
3324,1,SP-NURSESTN_LOBBY_FLR_3 SYS-3 FLR-4 SCH-H HPLCMT-CORE ZN,Zone Air Temperature [C] !Hourly
3325,7,SP-NURSESTN_LOBBY_FLR_3 SYS-3 FLR-4 SCH-H HPLCMT-CORE ZN,Zone Air Relative Humidity [%] !Daily [Value,Min,Hour,Minute,Max,Hour,Minute]
3364,1,SP-NURSESTN_LOBBY_FLR_4 SYS-3 FLR-5 SCH-H HPLCMT-CORE ZN,Zone Air Temperature [C] !Hourly
3365,7,SP-NURSESTN_LOBBY_FLR_4 SYS-3 FLR-5 SCH-H HPLCMT-CORE ZN,Zone Air Relative Humidity [%] !Daily [Value,Min,Hour,Minute,Max,Hour,Minute]
3404,1,SP-NURSESTN_LOBBY_FLR_5 SYS-3 FLR-7 SCH-H HPLCMT-SOUTH ZN,Zone Air Temperature [C] !Hourly
3405,7,SP-NURSESTN_LOBBY_FLR_5 SYS-3 FLR-7 SCH-H HPLCMT-SOUTH ZN,Zone Air Relative Humidity [%] !Daily [Value,Min,Hour,Minute,Max,Hour,Minute]
3444,1,SP-OFFICE1_FLR_5 SYS-6 FLR-7 SCH-A HPLCMT-SOUTH ZN,Zone Air Temperature [C] !Hourly
3445,7,SP-OFFICE1_FLR_5 SYS-6 FLR-7 SCH-A HPLCMT-SOUTH ZN,Zone Air Relative Humidity [%] !Daily [Value,Min,Hour,Minute,Max,Hour,Minute]
3484,1,SP-OFFICE1_MULT4_FLR_1 SYS-6 FLR-2 SCH-A HPLCMT-SOUTH ZN,Zone Air Temperature [C] !Hourly
3485,7,SP-OFFICE1_MULT4_FLR_1 SYS-6 FLR-2 SCH-A HPLCMT-SOUTH ZN,Zone Air Relative Humidity [%] !Daily [Value,Min,Hour,Minute,Max,Hour,Minute]
3524,1,SP-OFFICE2_MULT5_FLR_5 SYS-6 FLR-7 SCH-A HPLCMT-WEST ZN,Zone Air Temperature [C] !Hourly
3525,7,SP-OFFICE2_MULT5_FLR_5 SYS-6 FLR-7 SCH-A HPLCMT-WEST ZN,Zone Air Relative Humidity [%] !Daily [Value,Min,Hour,Minute,Max,Hour,Minute]
3564,1,SP-OFFICE3_FLR_5 SYS-6 FLR-7 SCH-A HPLCMT-NORTH ZN,Zone Air Temperature [C] !Hourly
3565,7,SP-OFFICE3_FLR_5 SYS-6 FLR-7 SCH-A HPLCMT-NORTH ZN,Zone Air Relative Humidity [%] !Daily [Value,Min,Hour,Minute,Max,Hour,Minute]
3604,1,SP-OFFICE4_MULT6_FLR_5 SYS-6 FLR-7 SCH-A HPLCMT-NORTH ZN,Zone Air Temperature [C] !Hourly
3605,7,SP-OFFICE4_MULT6_FLR_5 SYS-6 FLR-7 SCH-A HPLCMT-NORTH ZN,Zone Air Relative Humidity [%] !Daily [Value,Min,Hour,Minute,Max,Hour,Minute]
3644,1,SP-OR1_FLR_2 SYS-3 FLR-3 SCH-H HPLCMT-NORTH ZN,Zone Air Temperature [C] !Hourly
3645,7,SP-OR1_FLR_2 SYS-3 FLR-3 SCH-H HPLCMT-NORTH ZN,Zone Air Relative Humidity [%] !Daily [Value,Min,Hour,Minute,Max,Hour,Minute]
3684,1,SP-OR2_MULT5_FLR_2 SYS-3 FLR-3 SCH-H HPLCMT-EAST ZN,Zone Air Temperature [C] !Hourly
3685,7,SP-OR2_MULT5_FLR_2 SYS-3 FLR-3 SCH-H HPLCMT-EAST ZN,Zone Air Relative Humidity [%] !Daily [Value,Min,Hour,Minute,Max,Hour,Minute]
3724,1,SP-OR3_FLR_2 SYS-3 FLR-3 SCH-H HPLCMT-NORTH ZN,Zone Air Temperature [C] !Hourly
3725,7,SP-OR3_FLR_2 SYS-3 FLR-3 SCH-H HPLCMT-NORTH ZN,Zone Air Relative Humidity [%] !Daily [Value,Min,Hour,Minute,Max,Hour,Minute]
3764,1,SP-OR4_FLR_2 SYS-3 FLR-3 SCH-H HPLCMT-CORE ZN,Zone Air Temperature [C] !Hourly
3765,7,SP-OR4_FLR_2 SYS-3 FLR-3 SCH-H HPLCMT-CORE ZN,Zone Air Relative Humidity [%] !Daily [Value,Min,Hour,Minute,Max,Hour,Minute]
3804,1,SP-OR_NURSESTN_LOBBY_FLR_2 SYS-3 FLR-3 SCH-H HPLCMT-SOUTH ZN,Zone Air Temperature [C] !Hourly
3805,7,SP-OR_NURSESTN_LOBBY_FLR_2 SYS-3 FLR-3 SCH-H HPLCMT-SOUTH ZN,Zone Air Relative Humidity [%] !Daily [Value,Min,Hour,Minute,Max,Hour,Minute]
3844,1,SP-PATROOM1_MULT10_FLR_3 SYS-3 FLR-4 SCH-H HPLCMT-SOUTH ZN,Zone Air Temperature [C] !Hourly
3845,7,SP-PATROOM1_MULT10_FLR_3 SYS-3 FLR-4 SCH-H HPLCMT-SOUTH ZN,Zone Air Relative Humidity [%] !Daily [Value,Min,Hour,Minute,Max,Hour,Minute]
3884,1,SP-PATROOM1_MULT10_FLR_4 SYS-3 FLR-5 SCH-H HPLCMT-SOUTH ZN,Zone Air Temperature [C] !Hourly
3885,7,SP-PATROOM1_MULT10_FLR_4 SYS-3 FLR-5 SCH-H HPLCMT-SOUTH ZN,Zone Air Relative Humidity [%] !Daily [Value,Min,Hour,Minute,Max,Hour,Minute]
3924,1,SP-PATROOM2_FLR_3 SYS-3 FLR-4 SCH-H HPLCMT-SOUTH ZN,Zone Air Temperature [C] !Hourly
3925,7,SP-PATROOM2_FLR_3 SYS-3 FLR-4 SCH-H HPLCMT-SOUTH ZN,Zone Air Relative Humidity [%] !Daily [Value,Min,Hour,Minute,Max,Hour,Minute]
3964,1,SP-PATROOM2_FLR_4 SYS-3 FLR-5 SCH-H HPLCMT-SOUTH ZN,Zone Air Temperature [C] !Hourly
3965,7,SP-PATROOM2_FLR_4 SYS-3 FLR-5 SCH-H HPLCMT-SOUTH ZN,Zone Air Relative Humidity [%] !Daily [Value,Min,Hour,Minute,Max,Hour,Minute]
4004,1,SP-PATROOM3_MULT10_FLR_3 SYS-3 FLR-4 SCH-H HPLCMT-EAST ZN,Zone Air Temperature [C] !Hourly
4005,7,SP-PATROOM3_MULT10_FLR_3 SYS-3 FLR-4 SCH-H HPLCMT-EAST ZN,Zone Air Relative Humidity [%] !Daily [Value,Min,Hour,Minute,Max,Hour,Minute]
4044,1,SP-PATROOM3_MULT10_FLR_4 SYS-3 FLR-5 SCH-H HPLCMT-EAST ZN,Zone Air Temperature [C] !Hourly
4045,7,SP-PATROOM3_MULT10_FLR_4 SYS-3 FLR-5 SCH-H HPLCMT-EAST ZN,Zone Air Relative Humidity [%] !Daily [Value,Min,Hour,Minute,Max,Hour,Minute]
4084,1,SP-PATROOM4_FLR_3 SYS-3 FLR-4 SCH-H HPLCMT-NORTH ZN,Zone Air Temperature [C] !Hourly
4085,7,SP-PATROOM4_FLR_3 SYS-3 FLR-4 SCH-H HPLCMT-NORTH ZN,Zone Air Relative Humidity [%] !Daily [Value,Min,Hour,Minute,Max,Hour,Minute]
4124,1,SP-PATROOM4_FLR_4 SYS-3 FLR-5 SCH-H HPLCMT-NORTH ZN,Zone Air Temperature [C] !Hourly
4125,7,SP-PATROOM4_FLR_4 SYS-3 FLR-5 SCH-H HPLCMT-NORTH ZN,Zone Air Relative Humidity [%] !Daily [Value,Min,Hour,Minute,Max,Hour,Minute]
4164,1,SP-PATROOM5_MULT10_FLR_3 SYS-3 FLR-4 SCH-H HPLCMT-NORTH ZN,Zone Air Temperature [C] !Hourly
4165,7,SP-PATROOM5_MULT10_FLR_3 SYS-3 FLR-4 SCH-H HPLCMT-NORTH ZN,Zone Air Relative Humidity [%] !Daily [Value,Min,Hour,Minute,Max,Hour,Minute]
4204,1,SP-PATROOM5_MULT10_FLR_4 SYS-3 FLR-5 SCH-H HPLCMT-NORTH ZN,Zone Air Temperature [C] !Hourly
4205,7,SP-PATROOM5_MULT10_FLR_4 SYS-3 FLR-5 SCH-H HPLCMT-NORTH ZN,Zone Air Relative Humidity [%] !Daily [Value,Min,Hour,Minute,Max,Hour,Minute]
4244,1,SP-PATROOM6_FLR_3 SYS-3 FLR-4 SCH-H HPLCMT-SOUTH ZN,Zone Air Temperature [C] !Hourly
4245,7,SP-PATROOM6_FLR_3 SYS-3 FLR-4 SCH-H HPLCMT-SOUTH ZN,Zone Air Relative Humidity [%] !Daily [Value,Min,Hour,Minute,Max,Hour,Minute]
4284,1,SP-PATROOM6_FLR_4 SYS-3 FLR-5 SCH-H HPLCMT-SOUTH ZN,Zone Air Temperature [C] !Hourly
4285,7,SP-PATROOM6_FLR_4 SYS-3 FLR-5 SCH-H HPLCMT-SOUTH ZN,Zone Air Relative Humidity [%] !Daily [Value,Min,Hour,Minute,Max,Hour,Minute]
4324,1,SP-PATROOM7_MULT10_FLR_3 SYS-3 FLR-4 SCH-H HPLCMT-WEST ZN,Zone Air Temperature [C] !Hourly
4325,7,SP-PATROOM7_MULT10_FLR_3 SYS-3 FLR-4 SCH-H HPLCMT-WEST ZN,Zone Air Relative Humidity [%] !Daily [Value,Min,Hour,Minute,Max,Hour,Minute]
4364,1,SP-PATROOM7_MULT10_FLR_4 SYS-3 FLR-5 SCH-H HPLCMT-WEST ZN,Zone Air Temperature [C] !Hourly
4365,7,SP-PATROOM7_MULT10_FLR_4 SYS-3 FLR-5 SCH-H HPLCMT-WEST ZN,Zone Air Relative Humidity [%] !Daily [Value,Min,Hour,Minute,Max,Hour,Minute]
4404,1,SP-PATROOM8_FLR_3 SYS-3 FLR-4 SCH-H HPLCMT-NORTH ZN,Zone Air Temperature [C] !Hourly
4405,7,SP-PATROOM8_FLR_3 SYS-3 FLR-4 SCH-H HPLCMT-NORTH ZN,Zone Air Relative Humidity [%] !Daily [Value,Min,Hour,Minute,Max,Hour,Minute]
4444,1,SP-PATROOM8_FLR_4 SYS-3 FLR-5 SCH-H HPLCMT-NORTH ZN,Zone Air Temperature [C] !Hourly
4445,7,SP-PATROOM8_FLR_4 SYS-3 FLR-5 SCH-H HPLCMT-NORTH ZN,Zone Air Relative Humidity [%] !Daily [Value,Min,Hour,Minute,Max,Hour,Minute]
4484,1,SP-PHYSTHERAPY_FLR_3 SYS-3 FLR-4 SCH-C HPLCMT-CORE ZN,Zone Air Temperature [C] !Hourly
4485,7,SP-PHYSTHERAPY_FLR_3 SYS-3 FLR-4 SCH-C HPLCMT-CORE ZN,Zone Air Relative Humidity [%] !Daily [Value,Min,Hour,Minute,Max,Hour,Minute]
4524,1,SP-RADIOLOGY_FLR_4 SYS-3 FLR-5 SCH-H HPLCMT-CORE ZN,Zone Air Temperature [C] !Hourly
4525,7,SP-RADIOLOGY_FLR_4 SYS-3 FLR-5 SCH-H HPLCMT-CORE ZN,Zone Air Relative Humidity [%] !Daily [Value,Min,Hour,Minute,Max,Hour,Minute]
10,1,Electricity:Facility [J] !TimeStep
2130,1,Gas:Facility [J] !TimeStep
End of Data Dictionary
1,VANCOUVER INTL AP ANN CLG .4% CONDNS DB=>MWB,  49.20,-123.18,  -8.00,   4.30
2,1, 7,21, 0, 1, 0.00,10.00,SummerDesignDay
8,16.352199953652215
10,182109706.870578
2130,77898320.53355792
2,1, 7,21, 0, 1,10.00,20.00,SummerDesignDay
8,16.3252576442975
10,181143449.8734956
2130,108172878.52652025
2,1, 7,21, 0, 1,20.00,30.00,SummerDesignDay
8,16.2982938306074
10,180525726.67105354
2130,108172878.52652025
2,1, 7,21, 0, 1,30.00,40.00,SummerDesignDay
8,16.271298954341999
10,179959172.5410113
2130,108172878.52652025
2,1, 7,21, 0, 1,40.00,50.00,SummerDesignDay
8,16.244276700157607
10,179383851.14174778
2130,77623070.20575203
2,1, 7,21, 0, 1,50.00,60.00,SummerDesignDay
8,16.217228272321866
10,178661950.84803695
2130,108172878.52652025
2,1, 7,21, 0, 1, 0.00,60.00,SummerDesignDay
2364,22.43766623554126
2404,23.999900237194156
2444,23.999849059431737
2484,23.999889689339
2524,23.99987674492174
2564,23.999865867406937
2604,23.99987924643796
2644,23.99986737358219
2684,22.51205074432755
2724,23.998837361192355
2764,23.9988550593276
2804,23.999109217751199
2844,23.997923755944254
2884,23.997943464198348
2924,23.998895168706924
2964,23.460100228454825
3004,23.99907555215658
3044,24.015913249383556
3084,23.99937822162799
3124,23.999763730526288
3164,23.999098553425595
3204,23.474287347331218
3244,23.3353246948127
3284,23.603564643053074
3324,23.999120749154288
3364,23.999103954077087
3404,23.98301180068346
3444,20.201095305613057
3484,21.125914382195214
3524,19.30492951546548
3564,19.96045212096659
3604,21.489263965542077
3644,23.997916966653354
3684,23.99885238098931
3724,23.997969193143207
3764,23.998067490928066
3804,23.999082753535647
3844,23.999647035368466
3884,23.999647217605724
3924,23.99943940305754
3964,23.999439906585058
4004,23.99977591852948
4044,23.999775859631446
4084,23.99940596566778
4124,23.999406498744276
4164,23.99923980595447
4204,23.999239228480218
4244,23.999437131191305
4284,23.9994918465664
4324,23.99977001758023
4364,23.999769143482906
4404,23.9994430441236
4444,23.999501084719424
4484,23.057474345815554
4524,23.998530489939527
2,1, 7,21, 0, 2, 0.00,10.00,SummerDesignDay
8,16.199184445315237
10,151510495.2203876
2130,108172878.52652025
2,1, 7,21, 0, 2,10.00,20.00,SummerDesignDay
8,16.181123823551326
10,151271070.77841447
2130,109897787.7293603
2,1, 7,21, 0, 2,20.00,30.00,SummerDesignDay
8,16.163056857826836
10,150846463.40789525
2130,79179854.2973913
2,1, 7,21, 0, 2,30.00,40.00,SummerDesignDay
8,16.144971888810827
10,150250428.70949603
2130,110214633.13908965
2,1, 7,21, 0, 2,40.00,50.00,SummerDesignDay
8,16.12688104636919
10,149862527.52108465
2130,110654190.87877898
2,1, 7,21, 0, 2,50.00,60.00,SummerDesignDay
8,16.108773026303486
10,149584933.59675963
2130,110911298.66377779
2,1, 7,21, 0, 2, 0.00,60.00,SummerDesignDay
2364,22.1732526704869
2404,24.95368827983822
2444,25.02881016748219
2484,24.421817205901843
2524,24.9840714078521
2564,24.976299749471975
2604,25.00562022765318
2644,25.013939578994877
2684,22.025912636180114
2724,23.998861671102988
2764,23.99887267115329
2804,23.999340744033238
2844,23.998370759334237
2884,23.99837952828003
2924,23.998915584326878
2964,23.19888090537823
3004,23.999305108257187
3044,24.00374608045288
3084,23.999549533087934
3124,23.99980528788483
3164,24.21493344157754
3204,23.296471671453678
3244,23.153041815401364
3284,23.47613742543976
3324,23.999327241625055
3364,23.999319372613099
3404,23.82871444914395
3444,19.881154881668214
3484,20.678386481249757
3524,18.59004533757038
3564,19.572403908260495
3604,20.98608702433787
3644,23.99835886515756
3684,23.998903936747508
3724,23.998378777702439
3764,23.988425694030736
3804,23.999307132010768
3844,23.999708286725988
3884,23.999709000467307
3924,23.999595883444486
3964,23.9996029843763
4004,23.999815573862226
4044,23.999815873301416
4084,23.999565522768923
4124,23.999569233927774
4164,23.999375746421135
4204,23.999376814610448
4244,23.99960202098056
4284,23.999658419514018
4324,23.999817329854538
4364,23.999817254093988
4404,23.99960752019675
4444,23.99966599386326
4484,22.876252808992864
4524,23.998879453303237
2,1, 7,21, 0, 3, 0.00,10.00,SummerDesignDay
8,16.095187997840726
10,132047121.86024748
2130,76301496.38679756
2,1, 7,21, 0, 3,10.00,20.00,SummerDesignDay
8,16.08159647937563
10,131559462.0864807
2130,108312114.10959085
2,1, 7,21, 0, 3,20.00,30.00,SummerDesignDay
8,16.067992103020477
10,131340088.23827043
2130,98146477.95241894
2,1, 7,21, 0, 3,30.00,40.00,SummerDesignDay
8,16.054387489767213
10,131649855.97811152
2130,86855755.55863063
2,1, 7,21, 0, 3,40.00,50.00,SummerDesignDay
8,16.040775235496488
10,131124290.31196937
2130,108747555.75118104
2,1, 7,21, 0, 3,50.00,60.00,SummerDesignDay
8,16.027151463515208
10,130882976.29934779
2130,76321142.89605461
2,1, 7,21, 0, 3, 0.00,60.00,SummerDesignDay
2364,21.959675058095958
2404,25.098737136551717
2444,25.234040984168929
2484,24.208287007840189
2524,25.147232989493849
2564,25.132840160464427
2604,25.18119232602722
2644,25.174375488450808
2684,20.950267784674098
2724,23.998808567200429
2764,23.998816412003824
2804,23.999345351150415
2844,23.998390924783548
2884,23.998395335304637
2924,23.998861807105397
2964,22.995471243923136
3004,23.999301552569894
3044,23.998466255261137
3084,23.999575989580135
3124,23.99980306152693
3164,23.211363692298659
3204,23.160680797900299
3244,23.014486129414207
3284,23.350911348708555
3324,23.999311944586937
3364,23.999311035430084
3404,23.63922565683185
3444,19.613408143278563
3484,20.254058027883614
3524,18.06341059809986
3564,19.255830349587318
3604,20.511400725572938
3644,23.99836268875519
3684,23.998846982061598
3724,23.99836286894825
3764,23.888689238227255
3804,23.999303260293986
3844,23.999701479290974
3884,23.999702572654348
3924,23.99961594745875
3964,23.99963150610262
4004,23.999812723458207
4044,23.999813236779365
4084,23.999582899358584
4124,23.999592073280568
4164,23.99935362087366
4204,23.999355810891207
4244,23.999630361135777
4284,23.999694571735618
4324,23.999815081012103
4364,23.999815379261407
4404,23.999635844240328
4444,23.99970260243651
4484,22.738892878623898
4524,23.99888086707122
2,1, 7,21, 0, 4, 0.00,10.00,SummerDesignDay
8,16.013526309671386
10,130595032.92009317
2130,108554706.31534629
2,1, 7,21, 0, 4,10.00,20.00,SummerDesignDay
8,15.999888590638458
10,130138450.39324422
2130,108696962.62570764
2,1, 7,21, 0, 4,20.00,30.00,SummerDesignDay
8,15.986249958378048
10,129907591.58313862
2130,76847194.94564134
2,1, 7,21, 0, 4,30.00,40.00,SummerDesignDay
8,15.972604339068287
10,129539860.84715386
2130,108938970.5010406
2,1, 7,21, 0, 4,40.00,50.00,SummerDesignDay
8,15.958946698244901
10,129158831.80062627
2130,109052626.87853669
2,1, 7,21, 0, 4,50.00,60.00,SummerDesignDay
8,15.945287702730492
10,128922841.17913465
2130,77296107.22357998
2,1, 7,21, 0, 4, 0.00,60.00,SummerDesignDay
2364,21.76638008803759
2404,24.928700069414857
2444,25.111729133380139
2484,23.846774588432426
2524,25.044867680650609
2564,25.010565329886217
2604,25.08136949761234
2644,25.04465861895071
2684,20.302240444287695
2724,23.998795209666527
2764,23.99880272286288
2804,23.999155178258275
2844,23.9980831950414
2884,23.99808573262813
2924,23.99884600528522
2964,22.811469550400575
3004,23.999095436457226
3044,23.998231572107014
3084,23.999484514543899
3124,23.999782019591384
3164,22.353903147556016
3204,23.028625527960405
3244,22.876655421248278
3284,23.219709893507969
3324,23.999105230263578
3364,23.99911668948549
3404,23.427790066321767
3444,19.369374148337348
3484,19.85212503976335
3524,18.000340303639495
3564,18.984631623629779
3604,20.063330862579585
3644,23.998022900366096
3684,23.998797523851097
3724,24.00060223960101
3764,23.760822798594817
3804,23.99909725786594
3844,23.999653185229069
3884,23.99965460657536
3924,23.99953036732128
3964,23.999561907489537
4004,23.999783059706158
4044,23.999783727616138
4084,23.9994876090159
4124,23.99951073408725
4164,23.99924048643624
4204,23.999243626012505
4244,23.99955494728448
4284,23.999640490799739
4324,23.9997851979164
4364,23.999785697058955
4404,23.999561916930657
4444,23.999651465807035
4484,22.611862927282119
4524,23.998586361570248
2,1, 7,21, 0, 5, 0.00,10.00,SummerDesignDay
8,15.936177990809899
10,128546340.46018949
2130,109227864.21938873
2,1, 7,21, 0, 5,10.00,20.00,SummerDesignDay
8,15.92705949178547
10,128316698.19217886
2130,87513589.54021417
2,1, 7,21, 0, 5,20.00,30.00,SummerDesignDay
8,15.917943710706878
10,128166628.36577101
2130,99117246.65350208
2,1, 7,21, 0, 5,30.00,40.00,SummerDesignDay
8,15.908825155859729
10,128102056.8741181
2130,109416885.85236028
2,1, 7,21, 0, 5,40.00,50.00,SummerDesignDay
8,15.89970321878413
10,128456966.04225332
2130,77390087.7807127
2,1, 7,21, 0, 5,50.00,60.00,SummerDesignDay
8,15.89058503181825
10,128892876.25346692
2130,109459656.45238811
2,1, 7,21, 0, 5, 0.00,60.00,SummerDesignDay
2364,21.595527000726777
2404,24.827922841106444
2444,25.05307950610964
2484,23.607492911784985
2524,24.99854485943509
2564,24.933063713552838
2604,25.03156559123713
2644,24.956832348561325
2684,19.994317439445017
2724,23.998870801503846
2764,23.998876354865034
2804,23.999130443945608
2844,24.00424696119717
2884,24.004469222737428
2924,23.99891607520914
2964,22.652317421888787
3004,23.999099184455138
3044,23.99838555105643
3084,23.999511009169195
3124,23.999792211589207
3164,21.943336024045043
3204,22.90965376301159
3244,22.74843597194062
3284,23.09661852686291
3324,23.999102482596216
3364,23.999128285948044
3404,23.251550817950599
3444,19.176305443579158
3484,19.490360217988923
3524,18.000400849285414
3564,18.820523264690065
3604,19.701945244863997
3644,23.999436736414496
3684,23.99886274899656
3724,23.99027172788074
3764,23.648629541056484
3804,23.999096968758097
3844,23.999666114147574
3884,23.99966759689134
3924,23.999509136635397
3964,23.999556802005285
4004,23.999773258938175
4044,23.999773982030964
4084,23.999414756231528
4124,23.99945444088713
4164,23.99922744299612
4204,23.99923090699367
4244,23.999582093475469
4284,23.99967505809141
4324,23.999792922905788
4364,23.999793553086915
4404,23.999564863193613
4444,23.999666081064335
4484,22.5003522546788
4524,23.998619162732117
2,1, 7,21, 0, 6, 0.00,10.00,SummerDesignDay
8,15.89970321878413
10,129634179.39827837
2130,109473560.50076445
2,1, 7,21, 0, 6,10.00,20.00,SummerDesignDay
8,15.908825155859729
10,130609303.99209149
2130,77520412.48713851
2,1, 7,21, 0, 6,20.00,30.00,SummerDesignDay
8,15.917943710706878
10,131415218.8894964
2130,109424186.05521226
2,1, 7,21, 0, 6,30.00,40.00,SummerDesignDay
8,15.92705949178547
10,132261116.50030631
2130,106366751.67962455
2,1, 7,21, 0, 6,40.00,50.00,SummerDesignDay
8,15.936177990809899
10,133218522.04371955
2130,80551028.75830417
2,1, 7,21, 0, 6,50.00,60.00,SummerDesignDay
8,15.945287702730492
10,133848149.3168998
2130,109297076.22570272
2,1, 7,21, 0, 6, 0.00,60.00,SummerDesignDay
2364,21.509975660796603
2404,24.75581175051437
2444,25.015446007026737
2484,23.509964564120215
2524,24.971867518888037
2564,24.87134323649968
2604,24.999071445443787
2644,24.882562470370826
2684,19.965102721034609
2724,23.998825431759284
2764,23.998829437570437
2804,23.9987801198163
2844,24.01112234526732
2884,24.00501756115577
2924,23.998868076383944
2964,22.602340144882154
3004,23.99906370400535
3044,23.99839739376665
3084,23.999503859931225
3124,23.999781851907789
3164,21.816068246807317
3204,22.846943138004368
3244,22.674820387527985
3284,22.999034403305016
3324,23.999061366864664
3364,23.999099023112306
3404,23.253342376805337
3444,19.220195873241598
3484,19.221512361751914
3524,18.000790251497443
3564,19.201205562954447
3604,19.790807374852926
3644,24.001796763667959
3684,23.99881053866682
3724,23.97374122300323
3764,23.624861999069414
3804,23.99903369479792
3844,23.999638341805633
3884,23.99963987442085
3924,23.99893031324579
3964,23.99900042444072
4004,23.999360803212615
4044,23.999360443684237
4084,23.998462069426009
4124,23.99850351380773
4164,23.998703154630495
4204,23.99870634093676
4244,23.999559088342079
4284,23.999663624456877
4324,23.999781992332406
4364,23.99978267820804
4404,23.999413007063528
4444,23.99954137772271
4484,22.451574681445157
4524,23.998596053286847
2,1, 7,21, 0, 7, 0.00,10.00,SummerDesignDay
8,15.977153459569559
10,135412932.2098683
2130,88478517.98480982
2,1, 7,21, 0, 7,10.00,20.00,SummerDesignDay
8,16.00898303120887
10,136162120.7557519
2130,108840910.89059806
2,1, 7,21, 0, 7,20.00,30.00,SummerDesignDay
8,16.040775235496488
10,137193917.26971898
2130,113651105.0322144
2,1, 7,21, 0, 7,30.00,40.00,SummerDesignDay
8,16.072525945973774
10,138343622.5220352
2130,81315832.85759811
2,1, 7,21, 0, 7,40.00,50.00,SummerDesignDay
8,16.104245538982189
10,139277496.76105763
2130,112610269.53734017
2,1, 7,21, 0, 7,50.00,60.00,SummerDesignDay
8,16.135928228205914
10,140117570.37417055
2130,112357631.07232698
2,1, 7,21, 0, 7, 0.00,60.00,SummerDesignDay
2364,21.58980567571535
2404,24.73112966188236
2444,25.01397081815621
2484,23.64976905798642
2524,24.977244015570219
2564,24.844407812218408
2604,24.998485160917256
2644,24.844322332684575
2684,20.28584718179317
2724,23.998476337733977
2764,23.9984764971344
2804,23.998722627124566
2844,23.998394012165638
2884,23.998335157737818
2924,23.99852626023029
2964,22.744663841843715
3004,23.999127004863479
3044,23.99826086902837
3084,23.99955977218229
3124,23.99973484783966
3164,22.034360879764866
3204,22.895903518924315
3244,22.71483472686273
3284,22.924202745398558
3324,23.999119471503695
3364,23.999158717602048
3404,23.533639766513859
3444,20.069464310660476
3484,20.030760119883138
3524,19.97928581358831
3564,20.065464560317428
3604,20.025624552770016
3644,23.998277686086749
3684,23.998508488813127
3724,23.998368479733768
3764,23.770109570645265
3804,23.999064843072458
3844,23.999581694337377
3884,23.9995831802924
3924,23.998530300371
3964,23.99859458880529
4004,23.99853107000939
4044,23.998525080575396
4084,23.998224155793066
4124,23.99825836528858
4164,23.998599833095598
4204,23.998599958134027
4244,23.99958847906031
4284,23.9996854414527
4324,23.999755325178215
4364,23.99975602793692
4404,23.999518299261326
4444,23.999625535811629
4484,22.526920770358264
4524,23.998743298439707
2,1, 7,21, 0, 8, 0.00,10.00,SummerDesignDay
8,16.212718231329928
10,161818068.73316507
2130,104471878.86651808
2,1, 7,21, 0, 8,10.00,20.00,SummerDesignDay
8,16.289295095914626
10,161849475.3397522
2130,112473378.06431575
2,1, 7,21, 0, 8,20.00,30.00,SummerDesignDay
8,16.365658732225424
10,163788227.42140705
2130,118162544.13784239
2,1, 7,21, 0, 8,30.00,40.00,SummerDesignDay
8,16.44181049723187
10,166037735.22745518
2130,86160266.16878373
2,1, 7,21, 0, 8,40.00,50.00,SummerDesignDay
8,16.517756147764346
10,167420847.42904125
2130,116297183.9611499
2,1, 7,21, 0, 8,50.00,60.00,SummerDesignDay
8,16.593486849767513
10,169001142.15986759
2130,115644602.45264778
2,1, 7,21, 0, 8, 0.00,60.00,SummerDesignDay
2364,22.562686028073178
2404,24.76251999719048
2444,25.06808517685972
2484,24.01864910389096
2524,25.0299996937604
2564,24.869072684993129
2604,25.046388436422136
2644,24.861133512424279
2684,21.012137726500716
2724,23.998309400026746
2764,23.99830941835583
2804,23.998646657468674
2844,23.998209739924126
2884,23.998197439260733
2924,23.99835559318814
2964,23.204319035717615
3004,23.999013406753389
3044,23.99800154271109
3084,23.99951443954097
3124,23.999674620141894
3164,22.58004973996788
3204,23.430861118712728
3244,23.248083577914984
3284,23.109495080214946
3324,23.99899952316237
3364,23.999036219253055
3404,23.943029747457446
3444,22.01474462582433
3484,21.97999364743622
3524,21.959100975356539
3564,22.01592880543482
3604,21.998002788889257
3644,23.998016494914525
3684,23.99834592465543
3724,23.998079962235768
3764,23.986657207091829
3804,23.998911846779906
3844,23.999480561235456
3884,23.99948137330716
3924,23.998420099664718
3964,23.99848647291868
4004,23.998305288557636
4044,23.99829115188072
4084,23.998216368049197
4124,23.99825247378153
4164,23.998608410709143
4204,23.998605287098014
4244,23.99951776068072
4284,23.999617471048184
4324,23.99970343413891
4364,23.999703760849348
4404,23.9994812454762
4444,23.99958667473342
4484,22.806615702567269
4524,23.998629091952237
2,1, 7,21, 0, 9, 0.00,10.00,SummerDesignDay
8,16.677878063199516
10,234762246.2654245
2130,112448653.94307897