Program Version,EnergyPlus, Version 8.9.0-eba93e8e1b, YMD=2018.09.18 17:20
1,5,Environment Title[],Latitude[deg],Longitude[deg],Time Zone[],Elevation[m]
2,8,Day of Simulation[],Month[],Day of Month[],DST Indicator[1=yes 0=no],Hour[],StartMinute[],EndMinute[],DayType
3,5,Cumulative Day of Simulation[],Month[],Day of Month[],DST Indicator[1=yes 0=no],DayType  ! When Daily Report Variables Requested
4,2,Cumulative Days of Simulation[],Month[]  ! When Monthly Report Variables Requested
5,1,Cumulative Days of Simulation[] ! When Run Period Report Variables Requested
6,1,Calendar Year of Simulation[] ! When Annual Report Variables Requested
7,9,Environment,Site Outdoor Air Drybulb Temperature [C] !Monthly [Value,Min,Day,Hour,Minute,Max,Day,Hour,Minute]
8,1,Environment,Site Outdoor Air Wetbulb Temperature [C] !TimeStep
1149,1,SP-BANQUET_FLR_6 SYS-3 FLR-4 SCH-B HPLCMT-NORTH ZN,Zone Air Temperature [C] !Hourly
1150,7,SP-BANQUET_FLR_6 SYS-3 FLR-4 SCH-B HPLCMT-NORTH ZN,Zone Air Relative Humidity [%] !Daily [Value,Min,Hour,Minute,Max,Hour,Minute]
1189,1,SP-BASEMENT SYS-4 FLR-1 SCH-E HPLCMT-NORTH ZN,Zone Air Temperature [C] !Hourly
1190,7,SP-BASEMENT SYS-4 FLR-1 SCH-E HPLCMT-NORTH ZN,Zone Air Relative Humidity [%] !Daily [Value,Min,Hour,Minute,Max,Hour,Minute]
1229,1,SP-CAFE_FLR_1 SYS-6 FLR-2 SCH-C HPLCMT-SOUTH ZN,Zone Air Temperature [C] !Hourly
1230,7,SP-CAFE_FLR_1 SYS-6 FLR-2 SCH-C HPLCMT-SOUTH ZN,Zone Air Relative Humidity [%] !Daily [Value,Min,Hour,Minute,Max,Hour,Minute]
1269,1,SP-CORRIDOR_FLR_3 SYS-1 FLR-3 SCH-E HPLCMT-SOUTH ZN,Zone Air Temperature [C] !Hourly
1270,7,SP-CORRIDOR_FLR_3 SYS-1 FLR-3 SCH-E HPLCMT-SOUTH ZN,Zone Air Relative Humidity [%] !Daily [Value,Min,Hour,Minute,Max,Hour,Minute]
1309,1,SP-CORRIDOR_FLR_6 SYS-3 FLR-4 SCH-E HPLCMT-SOUTH ZN,Zone Air Temperature [C] !Hourly
1310,7,SP-CORRIDOR_FLR_6 SYS-3 FLR-4 SCH-E HPLCMT-SOUTH ZN,Zone Air Relative Humidity [%] !Daily [Value,Min,Hour,Minute,Max,Hour,Minute]
1349,1,SP-DINING_FLR_6 SYS-3 FLR-4 SCH-B HPLCMT-NORTH ZN,Zone Air Temperature [C] !Hourly
1350,7,SP-DINING_FLR_6 SYS-3 FLR-4 SCH-B HPLCMT-NORTH ZN,Zone Air Relative Humidity [%] !Daily [Value,Min,Hour,Minute,Max,Hour,Minute]
1389,1,SP-KITCHEN_FLR_6 SYS-3 FLR-4 SCH-B HPLCMT-EAST ZN,Zone Air Temperature [C] !Hourly
1390,7,SP-KITCHEN_FLR_6 SYS-3 FLR-4 SCH-B HPLCMT-EAST ZN,Zone Air Relative Humidity [%] !Daily [Value,Min,Hour,Minute,Max,Hour,Minute]
1429,1,SP-LAUNDRY_FLR_1 SYS-6 FLR-2 SCH-C HPLCMT-EAST ZN,Zone Air Temperature [C] !Hourly
1430,7,SP-LAUNDRY_FLR_1 SYS-6 FLR-2 SCH-C HPLCMT-EAST ZN,Zone Air Relative Humidity [%] !Daily [Value,Min,Hour,Minute,Max,Hour,Minute]
1469,1,SP-LOBBY_FLR_1 SYS-6 FLR-2 SCH-H HPLCMT-NORTH ZN,Zone Air Temperature [C] !Hourly
1470,7,SP-LOBBY_FLR_1 SYS-6 FLR-2 SCH-H HPLCMT-NORTH ZN,Zone Air Relative Humidity [%] !Daily [Value,Min,Hour,Minute,Max,Hour,Minute]
1509,1,SP-MECH_FLR_1 SYS-6 FLR-2 SCH-E HPLCMT-NORTH ZN,Zone Air Temperature [C] !Hourly
1510,7,SP-MECH_FLR_1 SYS-6 FLR-2 SCH-E HPLCMT-NORTH ZN,Zone Air Relative Humidity [%] !Daily [Value,Min,Hour,Minute,Max,Hour,Minute]
1549,1,SP-RETAIL_1_FLR_1 SYS-6 FLR-2 SCH-C HPLCMT-SOUTH ZN,Zone Air Temperature [C] !Hourly
1550,7,SP-RETAIL_1_FLR_1 SYS-6 FLR-2 SCH-C HPLCMT-SOUTH ZN,Zone Air Relative Humidity [%] !Daily [Value,Min,Hour,Minute,Max,Hour,Minute]
1589,1,SP-RETAIL_2_FLR_1 SYS-6 FLR-2 SCH-C HPLCMT-WEST ZN,Zone Air Temperature [C] !Hourly
1590,7,SP-RETAIL_2_FLR_1 SYS-6 FLR-2 SCH-C HPLCMT-WEST ZN,Zone Air Relative Humidity [%] !Daily [Value,Min,Hour,Minute,Max,Hour,Minute]
1629,1,SP-ROOM_1_FLR_3 SYS-1 FLR-3 SCH-F HPLCMT-WEST ZN,Zone Air Temperature [C] !Hourly
1630,7,SP-ROOM_1_FLR_3 SYS-1 FLR-3 SCH-F HPLCMT-WEST ZN,Zone Air Relative Humidity [%] !Daily [Value,Min,Hour,Minute,Max,Hour,Minute]
1669,1,SP-ROOM_1_FLR_6 SYS-1 FLR-4 SCH-F HPLCMT-WEST ZN,Zone Air Temperature [C] !Hourly
1670,7,SP-ROOM_1_FLR_6 SYS-1 FLR-4 SCH-F HPLCMT-WEST ZN,Zone Air Relative Humidity [%] !Daily [Value,Min,Hour,Minute,Max,Hour,Minute]
1709,1,SP-ROOM_2_FLR_3 SYS-1 FLR-3 SCH-F HPLCMT-WEST ZN,Zone Air Temperature [C] !Hourly
1710,7,SP-ROOM_2_FLR_3 SYS-1 FLR-3 SCH-F HPLCMT-WEST ZN,Zone Air Relative Humidity [%] !Daily [Value,Min,Hour,Minute,Max,Hour,Minute]
1749,1,SP-ROOM_2_FLR_6 SYS-1 FLR-4 SCH-F HPLCMT-WEST ZN,Zone Air Temperature [C] !Hourly
1750,7,SP-ROOM_2_FLR_6 SYS-1 FLR-4 SCH-F HPLCMT-WEST ZN,Zone Air Relative Humidity [%] !Daily [Value,Min,Hour,Minute,Max,Hour,Minute]
1789,1,SP-ROOM_3_MULT19_FLR_3 SYS-1 FLR-3 SCH-F HPLCMT-SOUTH ZN,Zone Air Temperature [C] !Hourly
1790,7,SP-ROOM_3_MULT19_FLR_3 SYS-1 FLR-3 SCH-F HPLCMT-SOUTH ZN,Zone Air Relative Humidity [%] !Daily [Value,Min,Hour,Minute,Max,Hour,Minute]
1829,1,SP-ROOM_3_MULT9_FLR_6 SYS-1 FLR-4 SCH-F HPLCMT-SOUTH ZN,Zone Air Temperature [C] !Hourly
1830,7,SP-ROOM_3_MULT9_FLR_6 SYS-1 FLR-4 SCH-F HPLCMT-SOUTH ZN,Zone Air Relative Humidity [%] !Daily [Value,Min,Hour,Minute,Max,Hour,Minute]
1869,1,SP-ROOM_4_MULT19_FLR_3 SYS-1 FLR-3 SCH-F HPLCMT-NORTH ZN,Zone Air Temperature [C] !Hourly
1870,7,SP-ROOM_4_MULT19_FLR_3 SYS-1 FLR-3 SCH-F HPLCMT-NORTH ZN,Zone Air Relative Humidity [%] !Daily [Value,Min,Hour,Minute,Max,Hour,Minute]
1909,1,SP-ROOM_5_FLR_3 SYS-1 FLR-3 SCH-F HPLCMT-EAST ZN,Zone Air Temperature [C] !Hourly
1910,7,SP-ROOM_5_FLR_3 SYS-1 FLR-3 SCH-F HPLCMT-EAST ZN,Zone Air Relative Humidity [%] !Daily [Value,Min,Hour,Minute,Max,Hour,Minute]
1949,1,SP-ROOM_6_FLR_3 SYS-1 FLR-3 SCH-F HPLCMT-EAST ZN,Zone Air Temperature [C] !Hourly
1950,7,SP-ROOM_6_FLR_3 SYS-1 FLR-3 SCH-F HPLCMT-EAST ZN,Zone Air Relative Humidity [%] !Daily [Value,Min,Hour,Minute,Max,Hour,Minute]
1989,1,SP-STORAGE_FLR_1 SYS-4 FLR-2 SCH-E HPLCMT-NORTH ZN,Zone Air Temperature [C] !Hourly
1990,7,SP-STORAGE_FLR_1 SYS-4 FLR-2 SCH-E HPLCMT-NORTH ZN,Zone Air Relative Humidity [%] !Daily [Value,Min,Hour,Minute,Max,Hour,Minute]
10,1,Electricity:Facility [J] !TimeStep
915,1,Gas:Facility [J] !TimeStep
End of Data Dictionary
1,VANCOUVER INTL AP ANN CLG .4% CONDNS DB=>MWB,  49.20,-123.18,  -8.00,   4.30
2,1, 7,21, 0, 1, 0.00,10.00,SummerDesignDay
8,16.352199953652215
10,49022759.682471159
915,139305248.32337708
2,1, 7,21, 0, 1,10.00,20.00,SummerDesignDay
8,16.3252576442975
10,46213602.865929428
915,135565808.2007366
2,1, 7,21, 0, 1,20.00,30.00,SummerDesignDay
8,16.2982938306074
10,46324301.541072238
915,135603424.52540068
2,1, 7,21, 0, 1,30.00,40.00,SummerDesignDay
8,16.271298954341999
10,46093834.88645144
915,136142939.54524393
2,1, 7,21, 0, 1,40.00,50.00,SummerDesignDay
8,16.244276700157607
10,46061188.55356019
915,136667579.70622967
2,1, 7,21, 0, 1,50.00,60.00,SummerDesignDay
8,16.217228272321866
10,46054314.02730332
915,137175186.54179556
2,1, 7,21, 0, 1, 0.00,60.00,SummerDesignDay
1149,22.000013835314417
1189,23.943214381118684
1229,19.91554899754352
1269,24.601869138385664
1309,23.43499246424696
1349,22.00002596857746
1389,23.999868826503364
1429,23.046260155862809
1469,23.99888898597747
1509,24.074072137640955
1549,20.112042861104109
1589,23.010693409450807
1629,23.859811213802094
1669,23.233116147803924
1709,23.84827992543111
1749,23.168457181825646
1789,22.333231673091068
1829,22.93629885205659
1869,22.316334515748396
1909,23.765636347571488
1949,23.73806208274296
1989,24.50913318351876
2,1, 7,21, 0, 2, 0.00,10.00,SummerDesignDay
8,16.199184445315237
10,42530834.27093065
915,138817872.0121558
2,1, 7,21, 0, 2,10.00,20.00,SummerDesignDay
8,16.181123823551326
10,42515262.288351308
915,139282359.5888605
2,1, 7,21, 0, 2,20.00,30.00,SummerDesignDay
8,16.163056857826836
10,42498929.34946489
915,139696930.83778329
2,1, 7,21, 0, 2,30.00,40.00,SummerDesignDay
8,16.144971888810827
10,42482260.89507077
915,140095648.8480423
2,1, 7,21, 0, 2,40.00,50.00,SummerDesignDay
8,16.12688104636919
10,42465330.00577216
915,140482825.58715407
2,1, 7,21, 0, 2,50.00,60.00,SummerDesignDay
8,16.108773026303486
10,42448279.487446557
915,140856793.63702125
2,1, 7,21, 0, 2, 0.00,60.00,SummerDesignDay
1149,21.999925542016628
1189,23.810519722537209
1229,19.753074044150965
1269,24.45027484097938
1309,22.938956428637498
1349,21.999913237732647
1389,23.899990063557654
1429,22.889017199297287
1469,23.998492923052397
1509,24.02539968397706
1549,19.924330827501327
1589,22.852398509647114
1629,23.736591247510729
1669,22.731924397602467
1709,23.700435359480879
1749,22.666106121903615
1789,22.5691632037351
1829,22.619280639695178
1869,22.534357731956907
1909,23.572366659940305
1949,23.52694507210535
1989,24.41283365649353
2,1, 7,21, 0, 3, 0.00,10.00,SummerDesignDay
8,16.095187997840726
10,40584414.59846692
915,134648948.7197253
2,1, 7,21, 0, 3,10.00,20.00,SummerDesignDay
8,16.08159647937563
10,40584011.17078528
915,134776680.12105496
2,1, 7,21, 0, 3,20.00,30.00,SummerDesignDay
8,16.067992103020477
10,40560248.30893858
915,134826090.52490057
2,1, 7,21, 0, 3,30.00,40.00,SummerDesignDay
8,16.054387489767213
10,40548655.18387258
915,135049999.37270109
2,1, 7,21, 0, 3,40.00,50.00,SummerDesignDay
8,16.040775235496488
10,40533787.50162634
915,135042171.43758477
2,1, 7,21, 0, 3,50.00,60.00,SummerDesignDay
8,16.027151463515208
10,40521267.619728598
915,135280473.3156092
2,1, 7,21, 0, 3, 0.00,60.00,SummerDesignDay
1149,20.292420734995639
1189,23.71512278818612
1229,19.63314964867925
1269,24.319542597880689
1309,22.497482696342986
1349,20.321497629298834
1389,22.969692211277306
1429,22.772456698554817
1469,23.998914318683235
1509,23.98242808207064
1549,19.78377704947422
1589,22.739261880244248
1629,23.59409940646457
1669,22.35409770114632
1709,23.544553605984168
1749,22.290287088569426
1789,23.099160366914807
1829,22.40774960668792
1869,23.05608427157803
1909,23.436698816181914
1949,23.384869214064776
1989,24.339343193273178
2,1, 7,21, 0, 4, 0.00,10.00,SummerDesignDay
8,16.013526309671386
10,39022395.8412225
915,135342044.87048284
2,1, 7,21, 0, 4,10.00,20.00,SummerDesignDay
8,15.999888590638458
10,39010660.94956439
915,135452519.23248903
2,1, 7,21, 0, 4,20.00,30.00,SummerDesignDay
8,15.986249958378048
10,38999877.37373785
915,135563859.78358604
2,1, 7,21, 0, 4,30.00,40.00,SummerDesignDay
8,15.972604339068287
10,38988792.568382028
915,135669729.4357777
2,1, 7,21, 0, 4,40.00,50.00,SummerDesignDay
8,15.958946698244901
10,38977388.39664394
915,135775834.46645288
2,1, 7,21, 0, 4,50.00,60.00,SummerDesignDay
8,15.945287702730492
10,38965725.40139138
915,135882232.2072175
2,1, 7,21, 0, 4, 0.00,60.00,SummerDesignDay
1149,19.380995105463545
1189,23.612184268376166
1229,19.514237711226217
1269,24.167842123755734
1309,21.944463479710547
1349,19.40960242799196
1389,22.138363351452118
1429,22.656273306827953
1469,23.998476768298589
1509,23.92927061662985
1549,19.64731971477471
1589,22.62619778387483
1629,23.384915081771739
1669,21.921737582492246
1709,23.329953404384879
1749,21.858306095088339
1789,23.428763452353555
1829,22.118015211752917
1869,23.36315729818377
1909,23.23935705726846
1949,23.182805518219089
1989,24.257845986161234
2,1, 7,21, 0, 5, 0.00,10.00,SummerDesignDay
8,15.936177990809899
10,38956023.101686719
915,135874089.2127106
2,1, 7,21, 0, 5,10.00,20.00,SummerDesignDay
8,15.92705949178547
10,38946448.36172156
915,136054345.3447029
2,1, 7,21, 0, 5,20.00,30.00,SummerDesignDay
8,15.917943710706878
10,38936760.45590219
915,136018143.18161885
2,1, 7,21, 0, 5,30.00,40.00,SummerDesignDay
8,15.908825155859729
10,39495761.701386768
915,136182947.6977877
2,1, 7,21, 0, 5,40.00,50.00,SummerDesignDay
8,15.89970321878413
10,40369010.15647601
915,136162195.66057254
2,1, 7,21, 0, 5,50.00,60.00,SummerDesignDay
8,15.89058503181825
10,40929164.40340491
915,136234221.83873479
2,1, 7,21, 0, 5, 0.00,60.00,SummerDesignDay
1149,18.92183612253804
1189,23.522411787974673
1229,19.44130941455311
1269,24.03309737725084
1309,21.40337703448979
1349,18.944365719191607
1389,21.49091432635799
1429,22.556913471537329
1469,23.998462456280067
1509,23.87801716626845
1549,19.55649215534975
1589,22.53199217180425
1629,23.22412940919497
1669,21.57263285846875
1709,23.188723511531163
1749,21.53212946780971
1789,23.803591888645316
1829,21.910490972752528
1869,23.76106421444527
1909,23.196672819682364
1949,23.165219461874757
1989,24.1844994997255
2,1, 7,21, 0, 6, 0.00,10.00,SummerDesignDay
8,15.89970321878413
10,40926778.94397269
915,136176609.96234168
2,1, 7,21, 0, 6,10.00,20.00,SummerDesignDay
8,15.908825155859729
10,47868721.07124035
915,136104585.3629176
2,1, 7,21, 0, 6,20.00,30.00,SummerDesignDay
8,15.917943710706878
10,44859874.06577021
915,136032559.07981978
2,1, 7,21, 0, 6,30.00,40.00,SummerDesignDay
8,15.92705949178547
10,44031173.308000538
915,135960532.94465847
2,1, 7,21, 0, 6,40.00,50.00,SummerDesignDay
8,15.936177990809899
10,42947628.28752346
915,135936834.48733605
2,1, 7,21, 0, 6,50.00,60.00,SummerDesignDay
8,15.945287702730492
10,42726250.258679259
915,135816480.36854313
2,1, 7,21, 0, 6, 0.00,60.00,SummerDesignDay
1149,18.980430469285936
1189,23.46325895776498
1229,19.66388318231267
1269,24.026200546205847
1309,21.199020343557128
1349,19.033160262881379
1389,22.452220478478968
1429,22.48364048694563
1469,23.998901109697078
1509,23.83671105722171
1549,19.73181165336852
1589,22.472614870706804
1629,23.25898603592326
1669,21.56814852464447
1709,23.41666751919527
1749,21.764253972689674
1789,23.87789121720004
1829,21.966027612850565
1869,23.87429714328538
1909,23.84522433853938
1949,23.85911103670787
1989,24.136469712422639
2,1, 7,21, 0, 7, 0.00,10.00,SummerDesignDay
8,15.977153459569559
10,44487169.62270966
915,135582407.77622197
2,1, 7,21, 0, 7,10.00,20.00,SummerDesignDay
8,16.00898303120887
10,43526173.59949347
915,135330318.11506937
2,1, 7,21, 0, 7,20.00,30.00,SummerDesignDay
8,16.040775235496488
10,43863887.669213149
915,135078225.64561624
2,1, 7,21, 0, 7,30.00,40.00,SummerDesignDay
8,16.072525945973774
10,44202307.813610229
915,134826132.66456936
2,1, 7,21, 0, 7,40.00,50.00,SummerDesignDay
8,16.104245538982189
10,44545629.292561117
915,134615755.13920758
2,1, 7,21, 0, 7,50.00,60.00,SummerDesignDay
8,16.135928228205914
10,44902044.69229826
915,134363532.91110174
2,1, 7,21, 0, 7, 0.00,60.00,SummerDesignDay
1149,19.344174974776608
1189,23.444275091105387
1229,20.142289754561277
1269,24.19988312451646
1309,21.417153308995837
1349,19.481505290829906
1389,25.44958540198387
1429,22.440394722413378
1469,23.99911566911032
1509,23.80116345381325
1549,20.149013526057045
1589,22.464703903451754
1629,23.498365744431554
1669,22.05197629705391
1709,23.800614182794026
1749,22.399148464643117
1789,23.28943037965657
1829,22.216994875640567
1869,23.494203243682617
1909,23.908602035955444
1949,23.908889999765223
1989,24.1250638013706
2,1, 7,21, 0, 8, 0.00,10.00,SummerDesignDay
8,16.212718231329928
10,50432593.359939698
915,133745832.63713692
2,1, 7,21, 0, 8,10.00,20.00,SummerDesignDay
8,16.289295095914626
10,49337177.90683378
915,133175462.26862198
2,1, 7,21, 0, 8,20.00,30.00,SummerDesignDay
8,16.365658732225424
10,49906035.23152971
915,132563553.41411792
2,1, 7,21, 0, 8,30.00,40.00,SummerDesignDay
8,16.44181049723187
10,50310952.182481128
915,131950669.2579769
2,1, 7,21, 0, 8,40.00,50.00,SummerDesignDay
8,16.517756147764346
10,50690062.98696624
915,131325807.63323176
2,1, 7,21, 0, 8,50.00,60.00,SummerDesignDay
8,16.593486849767513
10,51047166.09203264
915,131294240.17902676
2,1, 7,21, 0, 8, 0.00,60.00,SummerDesignDay
1149,20.073269845257469
1189,23.518887625840436
1229,20.756237691057508
1269,23.931392429396554
1309,21.974622000466679
1349,20.28476057225083
1389,28.980897990632088
1429,22.44775154950666
1469,23.999100159383148
1509,23.785720337728067
1549,20.685758705968369
1589,22.519863498041329
1629,23.85002835628116
1669,22.94699923044816
1709,23.901264038043125
1749,23.18483386126273
1789,22.453728185179654
1829,22.739488268524487
1869,22.74017246738376
1909,23.912085288401895
1949,23.912151308557954
1989,23.994539830644898
2,1, 7,21, 0, 9, 0.00,10.00,SummerDesignDay
8,16.677878063199516
10,64176533.43000023
915,133375406.62214659
2,1, 7,21, 0, 9,10.00,20.00,SummerDesignDay
8,16.76200946235728
10,67645161.2089661
915,139635443.2516315
2,1, 7,21, 0, 9,20.00,30.00,SummerDesignDay
8,16.845887031033866
10,71022882.82332745
915,141195762.52583719
2,1, 7,21, 0, 9,30.00,40.00,SummerDesignDay
8,16.929502190751337
10,70937005.65523947
915,137522771.91939999
2,1, 7,21, 0, 9,40.00,50.00,SummerDesignDay
8,17.012861351115086
10,72264178.55044778
915,135671035.67089517
2,1, 7,21, 0, 9,50.00,60.00,SummerDesignDay
8,17.09597057951627
10,72470009.76707569
915,135729490.19736953
2,1, 7,21, 0, 9, 0.00,60.00,SummerDesignDay
1149,21.209582535041937
1189,23.89192100327466
1229,22.176386695859745
1269,23.93043073629988
1309,23.047965822179447
1349,21.486646814565466
1389,24.251630949560896
1429,23.283773013209257
1469,23.99879728972736
1509,23.92731245707536
1549,22.155394160664206
1589,23.107797588060305
1629,23.88154953880965
1669,23.76118390927581
1709,23.8816606369033
1749,23.79991350426187
1789,22.00438524721714
1829,23.437976877809367
1869,22.05899472329008
1909,23.905461514773465
1949,23.90549459277239
1989,23.999884463728546
2,1, 7,21, 0,10, 0.00,10.00,SummerDesignDay
8,17.17011313897211
10,82630367.84655519
915,137133182.88011609
2,1, 7,21, 0,10,10.00,20.00,SummerDesignDay
8,17.24405314489198
10,78664217.76418063
915,131294240.17902676
2,1, 7,21, 0,10,20.00,30.00,SummerDesignDay
8,17.317792342150307
10,79695812.04434505
915,131294240.17902676
2,1, 7,21, 0,10,30.00,40.00,SummerDesignDay
8,17.391330750865035
10,81332797.22382134
915,131294240.17902676
2,1, 7,21, 0,10,40.00,50.00,SummerDesignDay
8,17.464669750704549
10,82269047.45204082
915,131294240.17902676
2,1, 7,21, 0,10,50.00,60.00,SummerDesignDay
8,17.537810589481837
10,83559719.480352
915,131294240.17902676
2,1, 7,21, 0,10, 0.00,60.00,SummerDesignDay
1149,22.847662456818289
1189,23.999716482139467
1229,23.64224913264242
1269,23.9261633327488
1309,23.969080464330167
1349,23.102409083736917
1389,23.99922025936631
1429,23.988977371473067
1469,23.99863855227417
1509,23.999954523528815
1549,23.648281247968858
1589,23.92850994683413
1629,23.876385071043698
1669,23.877897247305368
1709,23.874630318580718
1749,23.8759123677464
1789,22.165694764190908
1829,23.882415303052896
1869,22.064344622743737
1909,23.89320013315189
1949,23.89301040573888
1989,23.999721919119624
2,1, 7,21, 0,11, 0.00,10.00,SummerDesignDay
8,17.60218312883583
10,90517700.92306909
915,131294240.17902676
2,1, 7,21, 0,11,10.00,20.00,SummerDesignDay
8,17.666401914182499
10,92452374.30795576
915,131294240.17902676
2,1, 7,21, 0,11,20.00,30.00,SummerDesignDay
8,17.73046886665172
10,94064088.82737564
915,131294240.17902676
2,1, 7,21, 0,11,30.00,40.00,SummerDesignDay
8,17.794377337180749
10,96137689.21252834
915,131294240.17902676
2,1, 7,21, 0,11,40.00,50.00,SummerDesignDay
8,17.858140091722729
10,97279452.43004976
915,131294240.17902676
2,1, 7,21, 0,11,50.00,60.00,SummerDesignDay
8,17.921751671476274
10,98922393.05187243
915,131294240.17902676
2,1, 7,21, 0,11, 0.00,60.00,SummerDesignDay
1149,23.95004478580641
1189,23.999500216748478
1229,23.999555923831875
1269,23.92776347329738
1309,23.999340249946895
1349,23.985898199692874
1389,23.999326208626486
1429,23.9996163936346
1469,23.99855750579115
1509,23.99990622370004
1549,23.999624199958224
1589,23.999763832491558
1629,23.88015335716234
1669,23.882648919435338
1709,23.877056087251089
1749,23.879847070049448
1789,23.199246458180928
1829,23.889258793331874
1869,22.512841969664554
1909,23.891839544311357
1949,23.890685810440734
1989,23.999556378264875
2,1, 7,21, 0,12, 0.00,10.00,SummerDesignDay
8,17.964074041059168
10,100626820.24699989
915,131294240.17902676
2,1, 7,21, 0,12,10.00,20.00,SummerDesignDay
8,18.00633512830953
10,103171951.63171181
915,131294240.17902676
2,1, 7,21, 0,12,20.00,30.00,SummerDesignDay
8,18.048524057857607
10,104966439.2743414
915,131294240.17902676
2,1, 7,21, 0,12,30.00,40.00,SummerDesignDay
8,18.090647246552004
10,107374086.73095632
915,131294240.17902676
2,1, 7,21, 0,12,40.00,50.00,SummerDesignDay
8,18.132703529720616
10,109508671.16669892
915,131294240.17902676
2,1, 7,21, 0,12,50.00,60.00,SummerDesignDay
8,18.17469964536842
10,111505766.96705434
915,131294240.17902676
2,1, 7,21, 0,12, 0.00,60.00,SummerDesignDay
1149,23.998579094803266
1189,23.999295024743593
1229,23.99937331836766
1269,23.911086957469384
1309,23.999019255286865
1349,23.99849264538483
1389,23.99919402274681
1429,23.99940001080472
1469,23.998174936181198
1509,23.99983641391479
1549,23.99948015955106
1589,23.999598196381727
1629,23.856243939860055
1669,23.85978987379097
1709,23.849968507657608
1749,23.854550982874245
1789,23.853550294522269
1829,23.871301072509369
1869,22.784075972236367
1909,23.865617885809916
1949,23.86243900323849
1989,23.99935743136753
2,1, 7,21, 0,13, 0.00,10.00,SummerDesignDay
8,18.208245339828517
10,112020720.264471
915,131294240.17902676
2,1, 7,21, 0,13,10.00,20.00,SummerDesignDay
8,18.241744233723979
10,114966935.04026714
915,131294240.17902676
2,1, 7,21, 0,13,20.00,30.00,SummerDesignDay
8,18.2752069112248
10,116703387.23150277
915,131294240.17902676
2,1, 7,21, 0,13,30.00,40.00,SummerDesignDay
8,18.30862693969058
10,118017413.41976445
915,131294240.17902676
2,1, 7,21, 0,13,40.00,50.00,SummerDesignDay
8,18.342005526737105
10,119555741.20935717
915,131294240.17902676
2,1, 7,21, 0,13,50.00,60.00,SummerDesignDay
8,18.375341817792614
10,120323819.59708928
915,131294240.17902676
2,1, 7,21, 0,13, 0.00,60.00,SummerDesignDay
1149,23.997962143872866
1189,23.999215932939746
1229,23.999375473959817
1269,23.91224361470766
1309,23.999091497676518
1349,23.99790970623879
1389,23.999115795477196
1429,23.999316858826707
1469,23.998321474024875
1509,23.999824395811897
1549,23.99949912440161
1589,23.999560900271758
1629,23.858818389962143
1669,23.862280991008008
1709,23.851308714070276
1749,23.856212330522099
1789,23.86060316028779
1829,23.8750177556138
1869,23.14288265601017
1909,23.863559059312949
1949,23.858532654453538
1989,23.999315013506686
2,1, 7,21, 0,14, 0.00,10.00,SummerDesignDay
8,18.39615811087369
10,120680487.31949844
915,131294240.17902676
2,1, 7,21, 0,14,10.00,20.00,SummerDesignDay
8,18.416957955881725
10,119642879.9377417
915,131294240.17902676
2,1, 7,21, 0,14,20.00,30.00,SummerDesignDay
8,18.43773680274513
10,119200313.43529579
915,131294240.17902676
2,1, 7,21, 0,14,30.00,40.00,SummerDesignDay
8,18.458504433044504
10,118936273.20545143
915,131294240.17902676
2,1, 7,21, 0,14,40.00,50.00,SummerDesignDay
8,18.479250383250578
10,118684170.75925137
915,131294240.17902676
2,1, 7,21, 0,14,50.00,60.00,SummerDesignDay
8,18.499985692685468
10,118376949.98160121
915,131294240.17902676
2,1, 7,21, 0,14, 0.00,60.00,SummerDesignDay
1149,23.997657254819314
1189,23.999069638789569
1229,23.99944459831552
1269,23.912784322053445
1309,23.999254479400109
1349,23.99761403943029
1389,23.99904092035649
1429,23.999275348212625
1469,23.99850257053721
1509,23.99985943412666
1549,23.999577365395724
1589,23.99957786432633
1629,23.85972419967808
1669,23.863329548513766
1709,23.85313509790406
1749,23.857374908468093
1789,23.86374066092998
1829,23.87572300782654
1869,23.15684402998309
1909,23.861825550014755
1949,23.855875090114198
1989,23.99927393647363
2,1, 7,21, 0,15, 0.00,10.00,SummerDesignDay
8,18.499985692685468
10,117029587.56629412
915,131294240.17902676
2,1, 7,21, 0,15,10.00,20.00,SummerDesignDay
8,18.499985692685468
10,117817068.59190984
915,131294240.17902676
2,1, 7,21, 0,15,20.00,30.00,SummerDesignDay
8,18.499985692685468
10,117573569.75710358
915,131294240.17902676
2,1, 7,21, 0,15,30.00,40.00,SummerDesignDay
8,18.499985692685468
10,117044952.770667
915,131294240.17902676
2,1, 7,21, 0,15,40.00,50.00,SummerDesignDay
8,18.499985692685468
10,116377793.31152213
915,131294240.17902676
2,1, 7,21, 0,15,50.00,60.00,SummerDesignDay
8,18.499985692685468
10,115616347.3603901
915,131294240.17902676
2,1, 7,21, 0,15, 0.00,60.00,SummerDesignDay
1149,23.99804551612687
1189,23.998996787558708
1229,23.999542382318024
1269,23.912886927661235
1309,23.99943851241787
1349,23.998012929209819
1389,23.999168355078316
1429,23.999345604463547
1469,23.998638813812137
1509,23.99992133525689
1549,23.99966654744044
1589,23.9996508624362
1629,23.864015750606929
1669,23.86679775656331
1709,23.859915233566118
1749,23.863439675818034
1789,23.86321510607947
1829,23.873721722554369
1869,23.39902661127367
1909,23.859640668891264
1949,23.854373181552775
1989,23.999295400232115
2,1, 7,21, 0,16, 0.00,10.00,SummerDesignDay
8,18.475102970177127
10,114538362.49763365
915,131294240.17902676
2,1, 7,21, 0,16,10.00,20.00,SummerDesignDay
8,18.450201543271235
10,114539945.7440084
915,131294240.17902676
2,1, 7,21, 0,16,20.00,30.00,SummerDesignDay
8,18.425271777286019
10,114061341.70630306
915,131294240.17902676
2,1, 7,21, 0,16,30.00,40.00,SummerDesignDay
8,18.40031825447926
10,114610472.81758227
915,131294240.17902676
2,1, 7,21, 0,16,40.00,50.00,SummerDesignDay
8,18.375341817792614
10,113173827.20338848
915,131294240.17902676
2,1, 7,21, 0,16,50.00,60.00,SummerDesignDay
8,18.350347174046595
10,112698131.34687025
915,131294240.17902676
2,1, 7,21, 0,16, 0.00,60.00,SummerDesignDay
1149,23.99878123910337
1189,23.998883069521786
1229,23.99955509444707
1269,23.912668983447735
1309,23.999529561888534
1349,23.998760273982496
1389,23.999424527555687
1429,23.999373723649169
1469,23.998685659473609
1509,23.999966117718988
1549,23.999675080366626
1589,23.99968201503053
1629,23.868231517568657
1669,23.87074599543612
1709,23.866283011032008
1749,23.86899813796829
1789,23.86081203299808
1829,23.869872492957243
1869,23.76658170259202
1909,23.85701776186792
1949,23.853104715417034
1989,23.999315652642726
2,1, 7,21, 0,17, 0.00,10.00,SummerDesignDay
8,18.316978860635527
10,112031123.78032144
915,131294240.17902676
2,1, 7,21, 0,17,10.00,20.00,SummerDesignDay
8,18.2835693630182
10,111149871.56233423
915,131294240.17902676
2,1, 7,21, 0,17,20.00,30.00,SummerDesignDay
8,18.250118050746214
10,110215087.60749215
915,131294240.17902676
2,1, 7,21, 0,17,30.00,40.00,SummerDesignDay
8,18.216624325548968
10,109226635.67849231
915,131294240.17902676
2,1, 7,21, 0,17,40.00,50.00,SummerDesignDay
8,18.183088861944893
10,108190281.87334211
915,131294240.17902676
2,1, 7,21, 0,17,50.00,60.00,SummerDesignDay
8,18.149510843493635
10,107127276.80965261
915,131294240.17902676
2,1, 7,21, 0,17, 0.00,60.00,SummerDesignDay
1149,23.999269115089775
1189,23.998866275125569
1229,23.999502659940885
1269,23.912267215003259
1309,23.99959486374218
1349,23.999256201908623
1389,23.999610501332474
1429,23.99934756096283
1469,23.998655816478406
1509,23.999975145745393
1549,23.999631483239317
1589,23.99965874900555
1629,23.870904860211366
1669,23.87303650358248
1709,23.87001266065764
1749,23.871998242076498
1789,23.85732674054181
1829,23.86576603270205
1869,23.841335215423827
1909,23.854306894506036
1949,23.851445016289337
1989,23.999359307067576
2,1, 7,21, 0,18, 0.00,10.00,SummerDesignDay
8,18.10748062898272
10,106506219.61554069
915,131294240.17902676
2,1, 7,21, 0,18,10.00,20.00,SummerDesignDay
8,18.065379091048376
10,105512858.34120806
915,131294240.17902676
2,1, 7,21, 0,18,20.00,30.00,SummerDesignDay
8,18.023216461654344
10,104533758.64313965
915,131294240.17902676
2,1, 7,21, 0,18,30.00,40.00,SummerDesignDay
8,17.980987605947548
10,103494167.00449546
915,131294240.17902676
2,1, 7,21, 0,18,40.00,50.00,SummerDesignDay
8,17.93869205826644
10,102476125.4452907
915,131294240.17902676
2,1, 7,21, 0,18,50.00,60.00,SummerDesignDay
8,17.89632405402092
10,101501643.71175033
915,131294240.17902676
2,1, 7,21, 0,18, 0.00,60.00,SummerDesignDay
1149,23.999379633186114
1189,23.99890903408594
1229,23.994765467289459
1269,23.911868320461605
1309,23.999663777119875
1349,23.99936870930178
1389,23.999672930865374
1429,23.999392933576347
1469,23.998620641772218
1509,23.999974156999753
1549,23.999636449042005
1589,23.99966188449614
1629,23.871847284767797
1669,23.873407173156044
1709,23.87147571498599
1749,23.872681653661578
1789,23.853298674906346
1829,23.86065570546683
1869,23.842133305942185
1909,23.850923059410353
1949,23.849160662030259
1989,23.999413341611598
2,1, 7,21, 0,19, 0.00,10.00,SummerDesignDay
8,17.832657261722244
10,87644121.10711734
915,131294240.17902676
2,1, 7,21, 0,19,10.00,20.00,SummerDesignDay
8,17.768833985856515
10,86320944.38800282
915,131294240.17902676
2,1, 7,21, 0,19,20.00,30.00,SummerDesignDay
8,17.704859478274899
10,85106872.92705149
915,131294240.17902676
2,1, 7,21, 0,19,30.00,40.00,SummerDesignDay
8,17.640731707059819
10,83924067.98780854
915,131294240.17902676
2,1, 7,21, 0,19,40.00,50.00,SummerDesignDay
8,17.576451319157326
10,82779812.06615822
915,131294240.17902676
2,1, 7,21, 0,19,50.00,60.00,SummerDesignDay
8,17.512016904905339
10,81655139.51950817
915,131294240.17902676
2,1, 7,21, 0,19, 0.00,60.00,SummerDesignDay
1149,23.999133532152429
1189,23.99961843446526
1229,23.618984126046699
1269,23.911425382921505
1309,23.999837149282845
1349,23.999119151861178
1389,23.999633566167956
1429,23.9995107107198
1469,23.998594727947695
1509,23.999979726936134
1549,23.899715334120228
1589,23.999714654033313
1629,23.870620006507698
1669,23.87170449576179
1709,23.870475430222539
1749,23.87093420625153
1789,23.849153088758304
1829,23.854931571700005
1869,23.844109280040155
1909,23.846718460933436
1949,23.847247258288737
1989,23.9997453311598
2,1, 7,21, 0,20, 0.00,10.00,SummerDesignDay
8,17.464669750704549
10,71353793.1710678
915,131294240.17902676
2,1, 7,21, 0,20,10.00,20.00,SummerDesignDay
8,17.417239543286124
10,64670846.92396101
915,131370070.494887
2,1, 7,21, 0,20,20.00,30.00,SummerDesignDay
8,17.369720602565694
10,63780464.60465148
915,131294240.17902676
2,1, 7,21, 0,20,30.00,40.00,SummerDesignDay
8,17.32212315858905
10,62581749.11083868
915,131294240.17902676
2,1, 7,21, 0,20,40.00,50.00,SummerDesignDay
8,17.27444149556641
10,61496762.521089
915,131294240.17902676
2,1, 7,21, 0,20,50.00,60.00,SummerDesignDay
8,17.22667133087272
10,60289621.79103516
915,131294240.17902676
2,1, 7,21, 0,20, 0.00,60.00,SummerDesignDay
1149,23.998853999124056
1189,24.481792222406154
1229,22.643683457420996
1269,25.06836175913973
1309,25.2436590489374
1349,23.998837180170356
1389,23.999627005284407
1429,23.999738125423517