Program Version,EnergyPlus, Version 8.9.0-eba93e8e1b, YMD=2018.09.14 14:10
1,5,Environment Title[],Latitude[deg],Longitude[deg],Time Zone[],Elevation[m]
2,8,Day of Simulation[],Month[],Day of Month[],DST Indicator[1=yes 0=no],Hour[],StartMinute[],EndMinute[],DayType
3,5,Cumulative Day of Simulation[],Month[],Day of Month[],DST Indicator[1=yes 0=no],DayType  ! When Daily Report Variables Requested
4,2,Cumulative Days of Simulation[],Month[]  ! When Monthly Report Variables Requested
5,1,Cumulative Days of Simulation[] ! When Run Period Report Variables Requested
6,1,Calendar Year of Simulation[] ! When Annual Report Variables Requested
7,9,Environment,Site Outdoor Air Drybulb Temperature [C] !Monthly [Value,Min,Day,Hour,Minute,Max,Day,Hour,Minute]
8,1,Environment,Site Outdoor Air Wetbulb Temperature [C] !TimeStep
1125,1,SP-BASEMENT SYS-6 FLR-1 SCH-A HPLCMT-NORTH ZN,Zone Air Temperature [C] !Hourly
1126,7,SP-BASEMENT SYS-6 FLR-1 SCH-A HPLCMT-NORTH ZN,Zone Air Relative Humidity [%] !Daily [Value,Min,Hour,Minute,Max,Hour,Minute]
1165,1,SP-CORE_BOTTOM SYS-6 FLR-2 SCH-A HPLCMT-CORE ZN,Zone Air Temperature [C] !Hourly
1166,7,SP-CORE_BOTTOM SYS-6 FLR-2 SCH-A HPLCMT-CORE ZN,Zone Air Relative Humidity [%] !Daily [Value,Min,Hour,Minute,Max,Hour,Minute]
1205,1,SP-CORE_MID SYS-6 FLR-3 SCH-A HPLCMT-CORE ZN,Zone Air Temperature [C] !Hourly
1206,7,SP-CORE_MID SYS-6 FLR-3 SCH-A HPLCMT-CORE ZN,Zone Air Relative Humidity [%] !Daily [Value,Min,Hour,Minute,Max,Hour,Minute]
1245,1,SP-CORE_TOP SYS-6 FLR-4 SCH-A HPLCMT-CORE ZN,Zone Air Temperature [C] !Hourly
1246,7,SP-CORE_TOP SYS-6 FLR-4 SCH-A HPLCMT-CORE ZN,Zone Air Relative Humidity [%] !Daily [Value,Min,Hour,Minute,Max,Hour,Minute]
1285,1,SP-DATACENTER_BASEMENT_ZN_6 SYS-6 FLR-1 SCH-A HPLCMT-WEST ZN,Zone Air Temperature [C] !Hourly
1286,7,SP-DATACENTER_BASEMENT_ZN_6 SYS-6 FLR-1 SCH-A HPLCMT-WEST ZN,Zone Air Relative Humidity [%] !Daily [Value,Min,Hour,Minute,Max,Hour,Minute]
1325,1,SP-DATACENTER_BOT_ZN_6 SYS-6 FLR-2 SCH-A HPLCMT-CORE ZN,Zone Air Temperature [C] !Hourly
1326,7,SP-DATACENTER_BOT_ZN_6 SYS-6 FLR-2 SCH-A HPLCMT-CORE ZN,Zone Air Relative Humidity [%] !Daily [Value,Min,Hour,Minute,Max,Hour,Minute]
1365,1,SP-DATACENTER_MID_ZN_6 SYS-6 FLR-3 SCH-A HPLCMT-CORE ZN,Zone Air Temperature [C] !Hourly
1366,7,SP-DATACENTER_MID_ZN_6 SYS-6 FLR-3 SCH-A HPLCMT-CORE ZN,Zone Air Relative Humidity [%] !Daily [Value,Min,Hour,Minute,Max,Hour,Minute]
1405,1,SP-DATACENTER_TOP_ZN_6 SYS-6 FLR-4 SCH-A HPLCMT-CORE ZN,Zone Air Temperature [C] !Hourly
1406,7,SP-DATACENTER_TOP_ZN_6 SYS-6 FLR-4 SCH-A HPLCMT-CORE ZN,Zone Air Relative Humidity [%] !Daily [Value,Min,Hour,Minute,Max,Hour,Minute]
1445,1,SP-GROUNDFLOOR_PLENUM SYS-0 FLR-2 SCH-- UNDEFINED - HPLCMT-NORTH ZN,Zone Air Temperature [C] !Hourly
1446,7,SP-GROUNDFLOOR_PLENUM SYS-0 FLR-2 SCH-- UNDEFINED - HPLCMT-NORTH ZN,Zone Air Relative Humidity [%] !Daily [Value,Min,Hour,Minute,Max,Hour,Minute]
1485,1,SP-MIDFLOOR_PLENUM SYS-0 FLR-3 SCH-- UNDEFINED - HPLCMT-NORTH ZN,Zone Air Temperature [C] !Hourly
1486,7,SP-MIDFLOOR_PLENUM SYS-0 FLR-3 SCH-- UNDEFINED - HPLCMT-NORTH ZN,Zone Air Relative Humidity [%] !Daily [Value,Min,Hour,Minute,Max,Hour,Minute]
1525,1,SP-PERIMETER_BOT_ZN_1 SYS-6 FLR-2 SCH-A HPLCMT-SOUTH ZN,Zone Air Temperature [C] !Hourly
1526,7,SP-PERIMETER_BOT_ZN_1 SYS-6 FLR-2 SCH-A HPLCMT-SOUTH ZN,Zone Air Relative Humidity [%] !Daily [Value,Min,Hour,Minute,Max,Hour,Minute]
1565,1,SP-PERIMETER_BOT_ZN_2 SYS-6 FLR-2 SCH-A HPLCMT-EAST ZN,Zone Air Temperature [C] !Hourly
1566,7,SP-PERIMETER_BOT_ZN_2 SYS-6 FLR-2 SCH-A HPLCMT-EAST ZN,Zone Air Relative Humidity [%] !Daily [Value,Min,Hour,Minute,Max,Hour,Minute]
1605,1,SP-PERIMETER_BOT_ZN_3 SYS-6 FLR-2 SCH-A HPLCMT-NORTH ZN,Zone Air Temperature [C] !Hourly
1606,7,SP-PERIMETER_BOT_ZN_3 SYS-6 FLR-2 SCH-A HPLCMT-NORTH ZN,Zone Air Relative Humidity [%] !Daily [Value,Min,Hour,Minute,Max,Hour,Minute]
1645,1,SP-PERIMETER_BOT_ZN_4 SYS-6 FLR-2 SCH-A HPLCMT-WEST ZN,Zone Air Temperature [C] !Hourly
1646,7,SP-PERIMETER_BOT_ZN_4 SYS-6 FLR-2 SCH-A HPLCMT-WEST ZN,Zone Air Relative Humidity [%] !Daily [Value,Min,Hour,Minute,Max,Hour,Minute]
1685,1,SP-PERIMETER_MID_ZN_1 SYS-6 FLR-3 SCH-A HPLCMT-SOUTH ZN,Zone Air Temperature [C] !Hourly
1686,7,SP-PERIMETER_MID_ZN_1 SYS-6 FLR-3 SCH-A HPLCMT-SOUTH ZN,Zone Air Relative Humidity [%] !Daily [Value,Min,Hour,Minute,Max,Hour,Minute]
1725,1,SP-PERIMETER_MID_ZN_2 SYS-6 FLR-3 SCH-A HPLCMT-EAST ZN,Zone Air Temperature [C] !Hourly
1726,7,SP-PERIMETER_MID_ZN_2 SYS-6 FLR-3 SCH-A HPLCMT-EAST ZN,Zone Air Relative Humidity [%] !Daily [Value,Min,Hour,Minute,Max,Hour,Minute]
1765,1,SP-PERIMETER_MID_ZN_3 SYS-6 FLR-3 SCH-A HPLCMT-NORTH ZN,Zone Air Temperature [C] !Hourly
1766,7,SP-PERIMETER_MID_ZN_3 SYS-6 FLR-3 SCH-A HPLCMT-NORTH ZN,Zone Air Relative Humidity [%] !Daily [Value,Min,Hour,Minute,Max,Hour,Minute]
1805,1,SP-PERIMETER_MID_ZN_4 SYS-6 FLR-3 SCH-A HPLCMT-WEST ZN,Zone Air Temperature [C] !Hourly
1806,7,SP-PERIMETER_MID_ZN_4 SYS-6 FLR-3 SCH-A HPLCMT-WEST ZN,Zone Air Relative Humidity [%] !Daily [Value,Min,Hour,Minute,Max,Hour,Minute]
1845,1,SP-PERIMETER_TOP_ZN_1 SYS-6 FLR-4 SCH-A HPLCMT-SOUTH ZN,Zone Air Temperature [C] !Hourly
1846,7,SP-PERIMETER_TOP_ZN_1 SYS-6 FLR-4 SCH-A HPLCMT-SOUTH ZN,Zone Air Relative Humidity [%] !Daily [Value,Min,Hour,Minute,Max,Hour,Minute]
1885,1,SP-PERIMETER_TOP_ZN_2 SYS-6 FLR-4 SCH-A HPLCMT-EAST ZN,Zone Air Temperature [C] !Hourly
1886,7,SP-PERIMETER_TOP_ZN_2 SYS-6 FLR-4 SCH-A HPLCMT-EAST ZN,Zone Air Relative Humidity [%] !Daily [Value,Min,Hour,Minute,Max,Hour,Minute]
1925,1,SP-PERIMETER_TOP_ZN_3 SYS-6 FLR-4 SCH-A HPLCMT-NORTH ZN,Zone Air Temperature [C] !Hourly
1926,7,SP-PERIMETER_TOP_ZN_3 SYS-6 FLR-4 SCH-A HPLCMT-NORTH ZN,Zone Air Relative Humidity [%] !Daily [Value,Min,Hour,Minute,Max,Hour,Minute]
1965,1,SP-PERIMETER_TOP_ZN_4 SYS-6 FLR-4 SCH-A HPLCMT-WEST ZN,Zone Air Temperature [C] !Hourly
1966,7,SP-PERIMETER_TOP_ZN_4 SYS-6 FLR-4 SCH-A HPLCMT-WEST ZN,Zone Air Relative Humidity [%] !Daily [Value,Min,Hour,Minute,Max,Hour,Minute]
2005,1,SP-TOPFLOOR_PLENUM SYS-0 FLR-4 SCH-- UNDEFINED - HPLCMT-NORTH ZN,Zone Air Temperature [C] !Hourly
2006,7,SP-TOPFLOOR_PLENUM SYS-0 FLR-4 SCH-- UNDEFINED - HPLCMT-NORTH ZN,Zone Air Relative Humidity [%] !Daily [Value,Min,Hour,Minute,Max,Hour,Minute]
10,1,Electricity:Facility [J] !TimeStep
891,1,Gas:Facility [J] !TimeStep
End of Data Dictionary
1,VANCOUVER INTL AP ANN CLG .4% CONDNS DB=>MWB,  49.20,-123.18,  -8.00,   4.30
2,1, 7,21, 0, 1, 0.00,10.00,SummerDesignDay
8,16.352199953652215
10,185846090.32438133
891,6843364.477998114
2,1, 7,21, 0, 1,10.00,20.00,SummerDesignDay
8,16.3252576442975
10,185613255.14246867
891,52928253.41064603
2,1, 7,21, 0, 1,20.00,30.00,SummerDesignDay
8,16.2982938306074
10,185385537.90567146
891,61721098.601766239
2,1, 7,21, 0, 1,30.00,40.00,SummerDesignDay
8,16.271298954341999
10,185162768.0977449
891,48135796.364121418
2,1, 7,21, 0, 1,40.00,50.00,SummerDesignDay
8,16.244276700157607
10,184943947.67784188
891,15854108.01159411
2,1, 7,21, 0, 1,50.00,60.00,SummerDesignDay
8,16.217228272321866
10,184728334.2085655
891,60406094.953447718
2,1, 7,21, 0, 1, 0.00,60.00,SummerDesignDay
1125,23.70496720171163
1165,23.88623111331177
1205,23.93032530885381
1245,23.821614965733919
1285,23.61104302943248
1325,22.876621558690688
1365,22.596268991505896
1405,22.545433443424458
1445,26.32785470768276
1485,26.41708823552986
1525,22.284968376632617
1565,21.0584074286081
1605,23.315599723383003
1645,21.467287952725099
1685,21.57134746679753
1725,20.192815056977144
1765,23.08818655771756
1805,20.669563829418057
1845,21.547100323320419
1885,20.249092435289716
1925,22.986436801150658
1965,20.58302871072961
2005,24.323194315190464
2,1, 7,21, 0, 2, 0.00,10.00,SummerDesignDay
8,16.199184445315237
10,184702308.6645352
891,62247388.79927667
2,1, 7,21, 0, 2,10.00,20.00,SummerDesignDay
8,16.181123823551326
10,184697949.49022088
891,24178520.05633935
2,1, 7,21, 0, 2,20.00,30.00,SummerDesignDay
8,16.163056857826836
10,184693784.19531504
891,37226818.08763364
2,1, 7,21, 0, 2,30.00,40.00,SummerDesignDay
8,16.144971888810827
10,184689626.75119899
891,61370153.3476352
2,1, 7,21, 0, 2,40.00,50.00,SummerDesignDay
8,16.12688104636919
10,184685479.6371552
891,53747659.128722738
2,1, 7,21, 0, 2,50.00,60.00,SummerDesignDay
8,16.108773026303486
10,184681340.38284634
891,9649178.548380416
2,1, 7,21, 0, 2, 0.00,60.00,SummerDesignDay
1125,23.620105342422155
1165,23.8197862331846
1205,23.850668666362439
1245,23.67276471666268
1285,23.494822489257318
1325,22.710272650942529
1365,22.36021775047236
1405,22.260773841705335
1445,26.208095191561495
1485,26.273768120739605
1525,22.115015047941737
1565,20.8884242949682
1605,23.165769758065055
1645,21.222778954220286
1685,21.351434836876228
1725,19.9781687316957
1765,22.890636793287756
1805,20.358228544204228
1845,21.275809812181678
1885,19.988457431343254
1925,22.73086654677022
1965,20.23078321452248
2005,24.054567494077163
2,1, 7,21, 0, 3, 0.00,10.00,SummerDesignDay
8,16.095187997840726
10,184678242.66307656
891,60064484.596921239
2,1, 7,21, 0, 3,10.00,20.00,SummerDesignDay
8,16.08159647937563
10,184675150.26863388
891,62077211.54006859
2,1, 7,21, 0, 3,20.00,30.00,SummerDesignDay
8,16.067992103020477
10,184672060.96727566
891,36274345.08228642
2,1, 7,21, 0, 3,30.00,40.00,SummerDesignDay
8,16.054387489767213
10,184668978.49932388
891,26769260.10077321
2,1, 7,21, 0, 3,40.00,50.00,SummerDesignDay
8,16.040775235496488
10,184665900.70454297
891,60974379.480684068
2,1, 7,21, 0, 3,50.00,60.00,SummerDesignDay
8,16.027151463515208
10,184662827.13319216
891,59500455.42724268
2,1, 7,21, 0, 3, 0.00,60.00,SummerDesignDay
1125,23.53792140983535
1165,23.753344210438084
1205,23.776843448008195
1245,23.526546394356929
1285,23.38294351574638
1325,22.56217408838978
1365,22.159204788861599
1405,22.006724536024284
1445,26.084604430373845
1485,26.128150244348679
1525,21.958867010739849
1565,20.73379457318441
1605,23.028431250615815
1645,21.001338908728326
1685,21.155428228570814
1725,19.788153949341777
1765,22.715007296528943
1805,20.084610848513277
1845,21.027372614541166
1885,19.751880171717258
1925,22.495143824099896
1965,19.91598756269355
2005,23.8086564842181
2,1, 7,21, 0, 4, 0.00,10.00,SummerDesignDay
8,16.013526309671386
10,184659759.39282993
891,3281234.9951145329
2,1, 7,21, 0, 4,10.00,20.00,SummerDesignDay
8,15.999888590638458
10,184656695.4354457
891,59686010.53870045
2,1, 7,21, 0, 4,20.00,30.00,SummerDesignDay
8,15.986249958378048
10,184653637.81402365
891,61878939.870008919
2,1, 7,21, 0, 4,30.00,40.00,SummerDesignDay
8,15.972604339068287
10,184650585.13255278
891,45410648.92688354
2,1, 7,21, 0, 4,40.00,50.00,SummerDesignDay
8,15.958946698244901
10,184647535.90883778
891,18530353.3655952
2,1, 7,21, 0, 4,50.00,60.00,SummerDesignDay
8,15.945287702730492
10,184644492.96759454
891,60554142.18800849
2,1, 7,21, 0, 4, 0.00,60.00,SummerDesignDay
1125,23.457463350193849
1165,23.685786108735657
1205,23.704238210323515
1245,23.3803793363476
1285,23.274000669539804
1325,22.424266448248888
1365,21.979753063426334
1405,21.77227507896336
1445,25.9582769016109
1485,25.986526168048799
1525,21.811557618144865
1565,20.589435423449659
1605,22.897607273309914
1645,20.796754435556588
1685,20.974898679211369
1725,19.614383275781817
1765,22.55184006518971
1805,19.837116558568938
1845,20.794594535364927
1885,19.532074244586853
1925,22.271480834802316
1965,19.6279892386571
2005,23.575156455561808
2,1, 7,21, 0, 5, 0.00,10.00,SummerDesignDay
8,15.936177990809899
10,184642466.95680974
891,62346453.533103037
2,1, 7,21, 0, 5,10.00,20.00,SummerDesignDay
8,15.92705949178547
10,184640442.03659866
891,17509765.80646577
2,1, 7,21, 0, 5,20.00,30.00,SummerDesignDay
8,15.917943710706878
10,184638420.52264754
891,43111443.69577683
2,1, 7,21, 0, 5,30.00,40.00,SummerDesignDay
8,15.908825155859729
10,184636401.15559653
891,61525524.56275747
2,1, 7,21, 0, 5,40.00,50.00,SummerDesignDay
8,15.89970321878413
10,184634383.7907968
891,51741178.55350487
2,1, 7,21, 0, 5,50.00,60.00,SummerDesignDay
8,15.89058503181825
10,184632370.06053565
891,11131957.254982673
2,1, 7,21, 0, 5, 0.00,60.00,SummerDesignDay
1125,23.379778572713879
1165,23.61962205540694
1205,23.63356441731517
1245,23.23725198638185
1285,23.169307885729734
1325,22.295697746442639
1365,21.817035326278643
1405,21.554402699961199
1445,25.833441327535593
1485,25.84876909956903
1525,21.689122797052467
1565,20.666315417892407
1605,22.872602457530577
1645,20.62454068813341
1685,20.819473618821374
1725,19.62772798158408
1765,22.479836339272329
1805,19.62442186309036
1845,20.588558444829663
1885,19.500809542660865
1925,22.13995254556296
1965,19.37634752462354
2005,23.368810633368317
2,1, 7,21, 0, 6, 0.00,10.00,SummerDesignDay
8,15.89970321878413
10,184634383.7907968
891,63606226.26859828
2,1, 7,21, 0, 6,10.00,20.00,SummerDesignDay
8,15.908825155859729
10,184636401.15559653
891,60671905.33342129
2,1, 7,21, 0, 6,20.00,30.00,SummerDesignDay
8,15.917943710706878
10,184638420.52264754
891,34121735.7238262
2,1, 7,21, 0, 6,30.00,40.00,SummerDesignDay
8,15.92705949178547
10,184640442.03659866
891,28347442.298839787
2,1, 7,21, 0, 6,40.00,50.00,SummerDesignDay
8,15.936177990809899
10,184642466.95680974
891,64240666.10023202
2,1, 7,21, 0, 6,50.00,60.00,SummerDesignDay
8,15.945287702730492
10,184644492.96759454
891,63516130.345969978
2,1, 7,21, 0, 6, 0.00,60.00,SummerDesignDay
1125,23.30619422531247
1165,23.616513466164809
1205,23.620899081290039
1245,23.15402148604845
1285,23.067730585910075
1325,22.216095639517524
1365,21.703947394712669
1405,21.386635662458045
1445,25.718953410904914
1485,25.718325071680995
1525,21.74416537829345
1565,23.130623329622357
1605,23.552392977961515
1645,20.619512849398534
1685,20.832716676293115
1725,21.83399983385753
1765,23.080836242146434
1805,19.571966423997453
1845,20.553631806495138
1885,21.676357144088145
1925,22.683574383360239
1965,19.286491545452294
2005,23.44398445528692
2,1, 7,21, 0, 7, 0.00,10.00,SummerDesignDay
8,15.977153459569559
10,186513943.42206148
891,16346355.963881663
2,1, 7,21, 0, 7,10.00,20.00,SummerDesignDay
8,16.00898303120887
10,189585525.13465689
891,56851592.70208971
2,1, 7,21, 0, 7,20.00,30.00,SummerDesignDay
8,16.040775235496488
10,191756100.75465117
891,66428598.2817195
2,1, 7,21, 0, 7,30.00,40.00,SummerDesignDay
8,16.072525945973774
10,193358257.76547543
891,54272670.80264185
2,1, 7,21, 0, 7,40.00,50.00,SummerDesignDay
8,16.104245538982189
10,195159931.7251415
891,15324562.239320104
2,1, 7,21, 0, 7,50.00,60.00,SummerDesignDay
8,16.135928228205914
10,196718051.08151899
891,62509461.96765056
2,1, 7,21, 0, 7, 0.00,60.00,SummerDesignDay
1125,23.249229538710329
1165,23.659131775232117
1205,23.66928918267466
1245,23.141482964789814
1285,22.976506717704586
1325,22.192690613578777
1365,21.66451357811503
1405,21.303918471435517
1445,25.626407238422986
1485,25.60997350469492
1525,21.910355256727727
1565,24.007885257502818
1605,23.577356891662168
1645,20.659119582322139
1685,21.00971840576123
1725,23.949322820559684
1765,23.41697315148534
1805,19.995527131082214
1845,20.692677931720728
1885,23.920795450783414
1925,22.972761676415769
1965,19.992379945237976
2005,23.88316978144742
2,1, 7,21, 0, 8, 0.00,10.00,SummerDesignDay
8,16.212718231329928
10,297680553.65993437
891,201119701.0744447
2,1, 7,21, 0, 8,10.00,20.00,SummerDesignDay
8,16.289295095914626
10,299359809.8186762
891,113172153.90437274
2,1, 7,21, 0, 8,20.00,30.00,SummerDesignDay
8,16.365658732225424
10,305535468.2662053
891,138954337.3980756
2,1, 7,21, 0, 8,30.00,40.00,SummerDesignDay
8,16.44181049723187
10,306530526.2732877
891,134105588.49271083
2,1, 7,21, 0, 8,40.00,50.00,SummerDesignDay
8,16.517756147764346
10,307776342.0503334
891,131329074.71198023
2,1, 7,21, 0, 8,50.00,60.00,SummerDesignDay
8,16.593486849767513
10,309382814.15968409
891,150883808.3752936
2,1, 7,21, 0, 8, 0.00,60.00,SummerDesignDay
1125,23.58980107506812
1165,23.948232800094034
1205,23.95695863974576
1245,23.43584199170166
1285,23.339486898224693
1325,22.362493022464677
1365,22.005029452410754
1405,22.006482353334559
1445,25.58360615594887
1485,25.55100403979047
1525,22.333124044175958
1565,23.999826955447806
1605,23.818718316948919
1645,21.9820245203863
1685,22.01510502304042
1725,23.999583030209025
1765,23.80666355060653
1805,21.964497072029518
1845,22.072738945300359
1885,23.99974857338995
1925,23.297361540446145
1965,21.981214881956889
2005,24.47971216063878
2,1, 7,21, 0, 9, 0.00,10.00,SummerDesignDay
8,16.677878063199516
10,597961993.6461039
891,175236694.97710056
2,1, 7,21, 0, 9,10.00,20.00,SummerDesignDay
8,16.76200946235728
10,622191833.0765339
891,174320949.57994233
2,1, 7,21, 0, 9,20.00,30.00,SummerDesignDay
8,16.845887031033866
10,619966629.9243
891,173765892.26217396
2,1, 7,21, 0, 9,30.00,40.00,SummerDesignDay
8,16.929502190751337
10,619585803.7156653
891,173133091.3534525
2,1, 7,21, 0, 9,40.00,50.00,SummerDesignDay
8,17.012861351115086
10,619865151.9859893
891,172309496.69396699
2,1, 7,21, 0, 9,50.00,60.00,SummerDesignDay
8,17.09597057951627
10,620383999.258037
891,171365165.7013003
2,1, 7,21, 0, 9, 0.00,60.00,SummerDesignDay
1125,23.988419598009885
1165,23.99951078893487
1205,23.999268238414289
1245,23.97766480546346
1285,23.976206882152526
1325,22.988232287305818
1365,22.623106977142795
1405,22.2501756225489
1445,25.587420405840637
1485,25.548047092994609
1525,23.51079284111707
1565,23.999338884263705
1605,23.999102113494634
1645,22.01173303104359
1685,22.848588404367719
1725,23.999301269137665
1765,23.998900459688245
1805,22.001076634502668
1845,22.47538563928993
1885,23.99927377168513
1925,23.959748102290847
1965,22.001202898744098
2005,25.231517988839859
2,1, 7,21, 0,10, 0.00,10.00,SummerDesignDay
8,17.17011313897211
10,683906911.357042
891,168276556.61510165
2,1, 7,21, 0,10,10.00,20.00,SummerDesignDay
8,17.24405314489198
10,686192368.4924997
891,167143614.4746675
2,1, 7,21, 0,10,20.00,30.00,SummerDesignDay
8,17.317792342150307
10,687367545.8815831
891,166227073.85698349
2,1, 7,21, 0,10,30.00,40.00,SummerDesignDay
8,17.391330750865035
10,689457575.6259636
891,165137983.9702495
2,1, 7,21, 0,10,40.00,50.00,SummerDesignDay
8,17.464669750704549
10,692025431.3232859
891,167774420.6757978
2,1, 7,21, 0,10,50.00,60.00,SummerDesignDay
8,17.537810589481837
10,693870463.7677515
891,167336074.0932694
2,1, 7,21, 0,10, 0.00,60.00,SummerDesignDay
1125,23.99986174479379
1165,23.99891729900706
1205,23.999026509652464
1245,23.998914639660695
1285,23.998764157816738
1325,23.420125015090304
1365,23.09316271672461
1405,22.75663754863271
1445,25.64801313114293
1485,25.61285145668715
1525,23.996048106196267
1565,23.99904856388257
1605,23.998898407000369
1645,22.355635799824687
1685,23.806468547509355
1725,23.999182965912597
1765,23.999013131430855
1805,22.001143587849457
1845,23.600676577119616
1885,23.998989769626218
1925,23.99882281281963
1965,22.000515867889395
2005,26.028128831354509
2,1, 7,21, 0,11, 0.00,10.00,SummerDesignDay
8,17.60218312883583
10,695586183.9701026
891,166436521.44803418
2,1, 7,21, 0,11,10.00,20.00,SummerDesignDay
8,17.666401914182499
10,697938797.4210696
891,165302392.33702369
2,1, 7,21, 0,11,20.00,30.00,SummerDesignDay
8,17.73046886665172
10,695461676.6294999
891,165210127.31590546
2,1, 7,21, 0,11,30.00,40.00,SummerDesignDay
8,17.794377337180749
10,694838090.0944476
891,164764447.96782766
2,1, 7,21, 0,11,40.00,50.00,SummerDesignDay
8,17.858140091722729
10,695479607.0514088
891,164179637.05118469
2,1, 7,21, 0,11,50.00,60.00,SummerDesignDay
8,17.921751671476274
10,693247041.9638432
891,163560237.53817225
2,1, 7,21, 0,11, 0.00,60.00,SummerDesignDay
1125,23.9998644753372
1165,23.99867660663445
1205,23.999005155501199
1245,23.998642153722213
1285,23.99851188672616
1325,23.665853775527528
1365,23.370320754818456
1405,23.08977635522999
1445,25.750140599453418
1485,25.727797149376046
1525,23.998588476478476
1565,23.99898491078025
1605,23.998742537343973
1645,22.613555641265248
1685,23.99886702198226
1725,23.9992129117033
1765,23.999016827153729
1805,22.001130672662858
1845,23.99836916771746
1885,23.998907185924236
1925,23.99866441987112
1965,22.00011154270864
2005,26.774853040364467
2,1, 7,21, 0,12, 0.00,10.00,SummerDesignDay
8,17.964074041059168
10,694499870.4959986
891,163560237.53817225
2,1, 7,21, 0,12,10.00,20.00,SummerDesignDay
8,18.00633512830953
10,695921257.6688502
891,163560237.53817225
2,1, 7,21, 0,12,20.00,30.00,SummerDesignDay
8,18.048524057857607
10,697505156.3134923
891,163560237.53817225
2,1, 7,21, 0,12,30.00,40.00,SummerDesignDay
8,18.090647246552004
10,699207694.0668727
891,163560237.53817225
2,1, 7,21, 0,12,40.00,50.00,SummerDesignDay
8,18.132703529720616
10,700942670.5013056
891,163560237.53817225
2,1, 7,21, 0,12,50.00,60.00,SummerDesignDay
8,18.17469964536842
10,702612273.1698699
891,163560237.53817225
2,1, 7,21, 0,12, 0.00,60.00,SummerDesignDay
1125,23.999871791681917
1165,23.998433371233764
1205,23.99900280694217
1245,23.99839685427455
1285,23.998254489939936
1325,23.828966673174706
1365,23.53954931368266
1405,23.325641438504705
1445,25.86098647490891
1485,25.861853397543056
1525,23.998527800066698
1565,23.998780203896915
1605,23.998564536040236
1645,22.802847417168896
1685,23.99898688460765
1725,23.999191204172236
1765,23.999030474406977
1805,22.10538055942584
1845,23.998431858108036
1885,23.998760881184979
1925,23.998507013910005
1965,22.009004557811207
2005,27.414548879450626
2,1, 7,21, 0,13, 0.00,10.00,SummerDesignDay
8,18.208245339828517
10,692772496.1852145
891,163560237.53817225
2,1, 7,21, 0,13,10.00,20.00,SummerDesignDay
8,18.241744233723979
10,692799422.2642653
891,163560237.53817225
2,1, 7,21, 0,13,20.00,30.00,SummerDesignDay
8,18.2752069112248
10,693207148.7240759
891,163560237.53817225
2,1, 7,21, 0,13,30.00,40.00,SummerDesignDay
8,18.30862693969058
10,693700939.9632553
891,163560237.53817225
2,1, 7,21, 0,13,40.00,50.00,SummerDesignDay
8,18.342005526737105
10,694220834.6839377
891,163560237.53817225
2,1, 7,21, 0,13,50.00,60.00,SummerDesignDay
8,18.375341817792614
10,694693876.5743809
891,163560237.53817225
2,1, 7,21, 0,13, 0.00,60.00,SummerDesignDay
1125,23.999899229448599
1165,23.99857179746404
1205,23.999171167161255
1245,23.998541628592084
1285,23.998428558339467
1325,23.882237934158309
1365,23.60660869403226
1405,23.44363935548488
1445,25.976092715410045
1485,26.003883899264538
1525,23.998826791837094
1565,23.99885843773643
1605,23.998730055248278
1645,22.852870478657349
1685,23.99926268196104
1725,23.999318056793596
1765,23.99920442981509
1805,22.15989444048931
1845,23.998761719177723
1885,23.99886332399626
1925,23.998683479004325
1965,22.05112859007616
2005,27.883558956137894
2,1, 7,21, 0,14, 0.00,10.00,SummerDesignDay
8,18.39615811087369
10,694931856.4073502
891,163560237.53817225
2,1, 7,21, 0,14,10.00,20.00,SummerDesignDay
8,18.416957955881725
10,695015795.579091
891,163560237.53817225
2,1, 7,21, 0,14,20.00,30.00,SummerDesignDay
8,18.43773680274513
10,694959092.1699348
891,163560237.53817225
2,1, 7,21, 0,14,30.00,40.00,SummerDesignDay
8,18.458504433044504
10,694771243.9193925
891,163560237.53817225
2,1, 7,21, 0,14,40.00,50.00,SummerDesignDay
8,18.479250383250578
10,694460861.8719119
891,163560237.53817225
2,1, 7,21, 0,14,50.00,60.00,SummerDesignDay
8,18.499985692685468
10,694143477.4349139
891,163560237.53817225
2,1, 7,21, 0,14, 0.00,60.00,SummerDesignDay
1125,23.99992136313327
1165,23.998774708810236
1205,23.9993637852489
1245,23.998757951654203
1285,23.998639623010914
1325,23.979160876392525
1365,23.73273034872784
1405,23.625492442428479
1445,26.091332617966278
1485,26.145085995333714
1525,23.999036795090068
1565,23.998994506998334
1605,23.99892072484843
1645,23.42992135238451
1685,23.999423287014638
1725,23.999413825069764
1765,23.999368154757489
1805,22.65354024048349
1845,23.998974438558606
1885,23.99896089554277
1925,23.998876435970005
1965,22.589060888911037
2005,28.170807083627094
2,1, 7,21, 0,15, 0.00,10.00,SummerDesignDay
8,18.499985692685468
10,705044813.3624559
891,163560237.53817225
2,1, 7,21, 0,15,10.00,20.00,SummerDesignDay
8,18.499985692685468
10,709339586.1318513
891,163560237.53817225
2,1, 7,21, 0,15,20.00,30.00,SummerDesignDay
8,18.499985692685468
10,713071363.8631584
891,163560237.53817225
2,1, 7,21, 0,15,30.00,40.00,SummerDesignDay
8,18.499985692685468
10,716342564.4724063
891,163560237.53817225
2,1, 7,21, 0,15,40.00,50.00,SummerDesignDay
8,18.499985692685468
10,719908912.873251
891,163560237.53817225
2,1, 7,21, 0,15,50.00,60.00,SummerDesignDay
8,18.499985692685468
10,722949615.8029826
891,163560237.53817225
2,1, 7,21, 0,15, 0.00,60.00,SummerDesignDay
1125,23.999905274682026
1165,23.99860923658636
1205,23.99918141839277
1245,23.998607943742358
1285,23.998457023504458
1325,23.999084421937597
1365,23.987789718281705
1405,23.971460874478379
1445,26.206283474921635
1485,26.283575516023914
1525,23.99886548731416
1565,23.998806228837407
1605,23.998754117232
1645,23.997889249966094
1685,23.999188643845686
1725,23.999170895351626
1765,23.999158562926409
1805,23.943621259249736
1845,23.998819249933633
1885,23.998767429160734
1925,23.998719122188395
1965,23.936492398056659
2005,28.270219701880789
2,1, 7,21, 0,16, 0.00,10.00,SummerDesignDay
8,18.475102970177127
10,725404642.0746783
891,163560237.53817225
2,1, 7,21, 0,16,10.00,20.00,SummerDesignDay
8,18.450201543271235
10,727708432.510786
891,163560237.53817225
2,1, 7,21, 0,16,20.00,30.00,SummerDesignDay
8,18.425271777286019
10,729821313.9157807
891,163560237.53817225
2,1, 7,21, 0,16,30.00,40.00,SummerDesignDay
8,18.40031825447926
10,731717659.4600077
891,163560237.53817225
2,1, 7,21, 0,16,40.00,50.00,SummerDesignDay
8,18.375341817792614
10,733431807.1545898
891,163560237.53817225
2,1, 7,21, 0,16,50.00,60.00,SummerDesignDay
8,18.350347174046595
10,735084960.7016554
891,163560237.53817225
2,1, 7,21, 0,16, 0.00,60.00,SummerDesignDay
1125,23.9998930001225
1165,23.99838843596108
1205,23.999007035670564
1245,23.99837892779067
1285,23.998225254555334
1325,23.999014120972729
1365,23.999360618681469
1405,23.998978056912426
1445,26.318626950391729
1485,26.413513006653333
1525,23.998708669558189
1565,23.998642174188349
1605,23.998577068860035
1645,23.998570136856946
1685,23.999130683746505
1725,23.954976846601583
1765,23.999039370867139
1805,23.998981104239506
1845,23.998673564982153
1885,23.99859110530755
1925,23.998534277843946
1965,23.998455243869498
2005,28.15485926520519
2,1, 7,21, 0,17, 0.00,10.00,SummerDesignDay
8,18.316978860635527
10,736426012.5521574
891,163560237.53817225
2,1, 7,21, 0,17,10.00,20.00,SummerDesignDay
8,18.2835693630182
10,738479754.9460849
891,163560237.53817225
2,1, 7,21, 0,17,20.00,30.00,SummerDesignDay
8,18.250118050746214
10,740487693.2456328
891,163560237.53817225
2,1, 7,21, 0,17,30.00,40.00,SummerDesignDay
8,18.216624325548968
10,741702168.6201738
891,163560237.53817225
2,1, 7,21, 0,17,40.00,50.00,SummerDesignDay
8,18.183088861944893
10,742288013.363108
891,163560237.53817225
2,1, 7,21, 0,17,50.00,60.00,SummerDesignDay
8,18.149510843493635
10,742377405.7408329
891,163560237.53817225
2,1, 7,21, 0,17, 0.00,60.00,SummerDesignDay
1125,23.999892426737519
1165,23.998414619170434
1205,23.998990949052926
1245,23.998421399115484
1285,23.998258176774529
1325,23.999124070072815
1365,23.999415712677434
1405,23.999120765995256
1445,26.42803455709758
1485,26.538877911596037
1525,23.99872095989343
1565,23.998699817524899
1605,23.998636133573269
1645,23.99875900430435
1685,23.999119577641808
1725,23.792648097600077
1765,23.99904917611386
1805,23.99908885504051
1845,23.998713740851455
1885,23.987299016091514
1925,23.99860391389758
1965,23.9986867438388
2005,27.84064116067484
2,1, 7,21, 0,18, 0.00,10.00,SummerDesignDay
8,18.10748062898272
10,698404432.1612396
891,163560237.53817225
2,1, 7,21, 0,18,10.00,20.00,SummerDesignDay
8,18.065379091048376
10,696673235.3754685
891,163560237.53817225
2,1, 7,21, 0,18,20.00,30.00,SummerDesignDay
8,18.023216461654344
10,696424874.1261093
891,163560237.53817225
2,1, 7,21, 0,18,30.00,40.00,SummerDesignDay
8,17.980987605947548
10,695812840.1032721
891,163560237.53817225
2,1, 7,21, 0,18,40.00,50.00,SummerDesignDay
8,17.93869205826644
10,694843033.4776074
891,163560237.53817225
2,1, 7,21, 0,18,50.00,60.00,SummerDesignDay
8,17.89632405402092
10,693633258.6789187
891,163560237.53817225
2,1, 7,21, 0,18, 0.00,60.00,SummerDesignDay
1125,23.999935261634318
1165,23.998704062065369
1205,23.99911313635171
1245,23.998720672719299
1285,23.99861020702816
1325,23.99932187650964
1365,23.99951914471497
1405,23.999334194384735
1445,26.530959193190598
1485,26.65691982962315
1525,23.99894801350744
1565,23.871575705126248
1605,23.998888399911818
1645,23.999087714968046
1685,23.999213273959943
1725,23.491824032449615
1765,23.99916268311384
1805,23.999276623857445
1845,23.99893169798479
1885,23.737153966766685
1925,23.998860305244958
1965,23.99902166039904
2005,27.3798293211397
2,1, 7,21, 0,19, 0.00,10.00,SummerDesignDay
8,17.832657261722244
10,476197873.71264347
891,163560237.53817225
2,1, 7,21, 0,19,10.00,20.00,SummerDesignDay
8,17.768833985856515
10,468877608.653352
891,163560237.53817225
2,1, 7,21, 0,19,20.00,30.00,SummerDesignDay
8,17.704859478274899
10,466116990.0928004
891,163560237.53817225
2,1, 7,21, 0,19,30.00,40.00,SummerDesignDay
8,17.640731707059819
10,463678542.1967335
891,163560237.53817225
2,1, 7,21, 0,19,40.00,50.00,SummerDesignDay
8,17.576451319157326
10,461122411.6849757
891,163560237.53817225
2,1, 7,21, 0,19,50.00,60.00,SummerDesignDay
8,17.512016904905339
10,458252349.970606
891,163560237.53817225
2,1, 7,21, 0,19, 0.00,60.00,SummerDesignDay
1125,24.00003160773784
1165,23.99927496195671
1205,23.999476256959367
1245,23.999281431499154
1285,23.999286849228129
1325,23.999688702895754
1365,23.99978095229224
1405,23.999702755640305
1445,26.616714499654369
1485,26.75475530687535
1525,23.999394189960908
1565,23.18422381838576
1605,23.99932921063761
1645,23.999542023076118
1685,23.999502748089176
1725,22.792472522759075
1765,23.999446426601457
1805,23.9996205952137
1845,23.999356932445339
1885,23.038342202387495
1925,23.999285061072514
1965,23.99949801842821
2005,26.794562902838007