Program Version,EnergyPlus, Version 8.9.0-eba93e8e1b, YMD=2018.09.14 14:09
1,5,Environment Title[],Latitude[deg],Longitude[deg],Time Zone[],Elevation[m]
2,8,Day of Simulation[],Month[],Day of Month[],DST Indicator[1=yes 0=no],Hour[],StartMinute[],EndMinute[],DayType
3,5,Cumulative Day of Simulation[],Month[],Day of Month[],DST Indicator[1=yes 0=no],DayType  ! When Daily Report Variables Requested
4,2,Cumulative Days of Simulation[],Month[]  ! When Monthly Report Variables Requested
5,1,Cumulative Days of Simulation[] ! When Run Period Report Variables Requested
6,1,Calendar Year of Simulation[] ! When Annual Report Variables Requested
7,9,Environment,Site Outdoor Air Drybulb Temperature [C] !Monthly [Value,Min,Day,Hour,Minute,Max,Day,Hour,Minute]
8,1,Environment,Site Outdoor Air Wetbulb Temperature [C] !TimeStep
927,1,BASEMENT ZN,Zone Air Temperature [C] !Hourly
928,7,BASEMENT ZN,Zone Air Relative Humidity [%] !Daily [Value,Min,Hour,Minute,Max,Hour,Minute]
967,1,CORE_BOTTOM ZN,Zone Air Temperature [C] !Hourly
968,7,CORE_BOTTOM ZN,Zone Air Relative Humidity [%] !Daily [Value,Min,Hour,Minute,Max,Hour,Minute]
1007,1,CORE_MID ZN,Zone Air Temperature [C] !Hourly
1008,7,CORE_MID ZN,Zone Air Relative Humidity [%] !Daily [Value,Min,Hour,Minute,Max,Hour,Minute]
1047,1,CORE_TOP ZN,Zone Air Temperature [C] !Hourly
1048,7,CORE_TOP ZN,Zone Air Relative Humidity [%] !Daily [Value,Min,Hour,Minute,Max,Hour,Minute]
1087,1,DATACENTER_BASEMENT_ZN_6 ZN,Zone Air Temperature [C] !Hourly
1088,7,DATACENTER_BASEMENT_ZN_6 ZN,Zone Air Relative Humidity [%] !Daily [Value,Min,Hour,Minute,Max,Hour,Minute]
1127,1,DATACENTER_BOT_ZN_6 ZN,Zone Air Temperature [C] !Hourly
1128,7,DATACENTER_BOT_ZN_6 ZN,Zone Air Relative Humidity [%] !Daily [Value,Min,Hour,Minute,Max,Hour,Minute]
1167,1,DATACENTER_MID_ZN_6 ZN,Zone Air Temperature [C] !Hourly
1168,7,DATACENTER_MID_ZN_6 ZN,Zone Air Relative Humidity [%] !Daily [Value,Min,Hour,Minute,Max,Hour,Minute]
1207,1,DATACENTER_TOP_ZN_6 ZN,Zone Air Temperature [C] !Hourly
1208,7,DATACENTER_TOP_ZN_6 ZN,Zone Air Relative Humidity [%] !Daily [Value,Min,Hour,Minute,Max,Hour,Minute]
1247,1,GROUNDFLOOR_PLENUM ZN,Zone Air Temperature [C] !Hourly
1248,7,GROUNDFLOOR_PLENUM ZN,Zone Air Relative Humidity [%] !Daily [Value,Min,Hour,Minute,Max,Hour,Minute]
1287,1,MIDFLOOR_PLENUM ZN,Zone Air Temperature [C] !Hourly
1288,7,MIDFLOOR_PLENUM ZN,Zone Air Relative Humidity [%] !Daily [Value,Min,Hour,Minute,Max,Hour,Minute]
1327,1,PERIMETER_BOT_ZN_1 ZN,Zone Air Temperature [C] !Hourly
1328,7,PERIMETER_BOT_ZN_1 ZN,Zone Air Relative Humidity [%] !Daily [Value,Min,Hour,Minute,Max,Hour,Minute]
1367,1,PERIMETER_BOT_ZN_2 ZN,Zone Air Temperature [C] !Hourly
1368,7,PERIMETER_BOT_ZN_2 ZN,Zone Air Relative Humidity [%] !Daily [Value,Min,Hour,Minute,Max,Hour,Minute]
1407,1,PERIMETER_BOT_ZN_3 ZN,Zone Air Temperature [C] !Hourly
1408,7,PERIMETER_BOT_ZN_3 ZN,Zone Air Relative Humidity [%] !Daily [Value,Min,Hour,Minute,Max,Hour,Minute]
1447,1,PERIMETER_BOT_ZN_4 ZN,Zone Air Temperature [C] !Hourly
1448,7,PERIMETER_BOT_ZN_4 ZN,Zone Air Relative Humidity [%] !Daily [Value,Min,Hour,Minute,Max,Hour,Minute]
1487,1,PERIMETER_MID_ZN_1 ZN,Zone Air Temperature [C] !Hourly
1488,7,PERIMETER_MID_ZN_1 ZN,Zone Air Relative Humidity [%] !Daily [Value,Min,Hour,Minute,Max,Hour,Minute]
1527,1,PERIMETER_MID_ZN_2 ZN,Zone Air Temperature [C] !Hourly
1528,7,PERIMETER_MID_ZN_2 ZN,Zone Air Relative Humidity [%] !Daily [Value,Min,Hour,Minute,Max,Hour,Minute]
1567,1,PERIMETER_MID_ZN_3 ZN,Zone Air Temperature [C] !Hourly
1568,7,PERIMETER_MID_ZN_3 ZN,Zone Air Relative Humidity [%] !Daily [Value,Min,Hour,Minute,Max,Hour,Minute]
1607,1,PERIMETER_MID_ZN_4 ZN,Zone Air Temperature [C] !Hourly
1608,7,PERIMETER_MID_ZN_4 ZN,Zone Air Relative Humidity [%] !Daily [Value,Min,Hour,Minute,Max,Hour,Minute]
1647,1,PERIMETER_TOP_ZN_1 ZN,Zone Air Temperature [C] !Hourly
1648,7,PERIMETER_TOP_ZN_1 ZN,Zone Air Relative Humidity [%] !Daily [Value,Min,Hour,Minute,Max,Hour,Minute]
1687,1,PERIMETER_TOP_ZN_2 ZN,Zone Air Temperature [C] !Hourly
1688,7,PERIMETER_TOP_ZN_2 ZN,Zone Air Relative Humidity [%] !Daily [Value,Min,Hour,Minute,Max,Hour,Minute]
1727,1,PERIMETER_TOP_ZN_3 ZN,Zone Air Temperature [C] !Hourly
1728,7,PERIMETER_TOP_ZN_3 ZN,Zone Air Relative Humidity [%] !Daily [Value,Min,Hour,Minute,Max,Hour,Minute]
1767,1,PERIMETER_TOP_ZN_4 ZN,Zone Air Temperature [C] !Hourly
1768,7,PERIMETER_TOP_ZN_4 ZN,Zone Air Relative Humidity [%] !Daily [Value,Min,Hour,Minute,Max,Hour,Minute]
1807,1,TOPFLOOR_PLENUM ZN,Zone Air Temperature [C] !Hourly
1808,7,TOPFLOOR_PLENUM ZN,Zone Air Relative Humidity [%] !Daily [Value,Min,Hour,Minute,Max,Hour,Minute]
10,1,Electricity:Facility [J] !TimeStep
1958,1,DistrictCooling:Facility [J] !TimeStep
1921,1,DistrictHeating:Facility [J] !TimeStep
End of Data Dictionary
1,VANCOUVER INTL AP ANN CLG .4% CONDNS DB=>MWB,  49.20,-123.18,  -8.00,   4.30
2,1, 7,21, 0, 1, 0.00,10.00,SummerDesignDay
8,16.352199953652215
10,54997435.27815389
1921,0.0
1958,0.0
2,1, 7,21, 0, 1,10.00,20.00,SummerDesignDay
8,16.3252576442975
10,54997435.27815389
1921,0.0
1958,0.0
2,1, 7,21, 0, 1,20.00,30.00,SummerDesignDay
8,16.2982938306074
10,54997435.27815389
1921,0.0
1958,0.0
2,1, 7,21, 0, 1,30.00,40.00,SummerDesignDay
8,16.271298954341999
10,54997435.27815389
1921,0.0
1958,0.0
2,1, 7,21, 0, 1,40.00,50.00,SummerDesignDay
8,16.244276700157607
10,54997435.27815389
1921,0.0
1958,0.0
2,1, 7,21, 0, 1,50.00,60.00,SummerDesignDay
8,16.217228272321866
10,54997435.27815389
1921,0.0
1958,0.0
2,1, 7,21, 0, 1, 0.00,60.00,SummerDesignDay
927,24.620882256508563
967,25.25851370860943
1007,25.59995235072526
1047,25.61709147768612
1087,24.92625552283978
1127,26.308599417797287
1167,26.65878309468957
1207,26.679723687618336
1247,26.86445684322887
1287,27.106629354463775
1327,25.316852428539894
1367,25.32211785459808
1407,25.021353272811554
1447,26.2629989994218
1487,25.456858506882786
1527,25.463026064238077
1567,25.104456856209198
1607,26.591037509638473
1647,25.396541942108575
1687,25.401888091964428
1727,25.052017146048099
1767,26.50090952358826
1807,24.881033361921398
2,1, 7,21, 0, 2, 0.00,10.00,SummerDesignDay
8,16.199184445315237
10,54997435.27815389
1921,0.0
1958,0.0
2,1, 7,21, 0, 2,10.00,20.00,SummerDesignDay
8,16.181123823551326
10,54997435.27815389
1921,0.0
1958,0.0
2,1, 7,21, 0, 2,20.00,30.00,SummerDesignDay
8,16.163056857826836
10,54997435.27815389
1921,0.0
1958,0.0
2,1, 7,21, 0, 2,30.00,40.00,SummerDesignDay
8,16.144971888810827
10,54997435.27815389
1921,0.0
1958,0.0
2,1, 7,21, 0, 2,40.00,50.00,SummerDesignDay
8,16.12688104636919
10,54997435.27815389
1921,0.0
1958,0.0
2,1, 7,21, 0, 2,50.00,60.00,SummerDesignDay
8,16.108773026303486
10,54997435.27815389
1921,0.0
1958,0.0
2,1, 7,21, 0, 2, 0.00,60.00,SummerDesignDay
927,24.52129708667235
967,25.164676410110258
1007,25.52023743139917
1047,25.470853019905236
1087,24.798276058928808
1127,26.199417785047044
1167,26.57390596068818
1207,26.537328987832696
1247,26.785967434915056
1287,27.02171506233692
1327,25.13631101940037
1367,25.134955101565539
1407,24.861116341991175
1447,26.00937831748807
1487,25.265148778596527
1527,25.264816670538335
1567,24.928704086267915
1607,26.317452261199717
1647,25.144302455100417
1687,25.143339696315097
1727,24.81643398674123
1767,26.169306517916394
1807,24.68250774368586
2,1, 7,21, 0, 3, 0.00,10.00,SummerDesignDay
8,16.095187997840726
10,54997435.27815389
1921,0.0
1958,0.0
2,1, 7,21, 0, 3,10.00,20.00,SummerDesignDay
8,16.08159647937563
10,54997435.27815389
1921,0.0
1958,0.0
2,1, 7,21, 0, 3,20.00,30.00,SummerDesignDay
8,16.067992103020477
10,54997435.27815389
1921,0.0
1958,0.0
2,1, 7,21, 0, 3,30.00,40.00,SummerDesignDay
8,16.054387489767213
10,54997435.27815389
1921,0.0
1958,0.0
2,1, 7,21, 0, 3,40.00,50.00,SummerDesignDay
8,16.040775235496488
10,54997435.27815389
1921,0.0
1958,0.0
2,1, 7,21, 0, 3,50.00,60.00,SummerDesignDay
8,16.027151463515208
10,54997435.27815389
1921,0.0
1958,0.0
2,1, 7,21, 0, 3, 0.00,60.00,SummerDesignDay
927,24.437532039719355
967,25.086960238151979
1007,25.452140543851845
1047,25.33364685236438
1087,24.69018726163247
1127,26.088350380848764
1167,26.468084850117078
1207,26.367629842237866
1247,26.70636391884821
1287,26.93751132257326
1327,24.978999080322436
1367,24.971879245933946
1407,24.723052805160298
1447,25.78109943209776
1487,25.089079216822218
1527,25.08270337955032
1567,24.771180910547299
1607,26.059252027877397
1647,24.90621674258087
1687,24.89942559788798
1727,24.597429747408275
1767,25.851578293879937
1807,24.504271148005889
2,1, 7,21, 0, 4, 0.00,10.00,SummerDesignDay
8,16.013526309671386
10,54997435.27815389
1921,0.0
1958,0.0
2,1, 7,21, 0, 4,10.00,20.00,SummerDesignDay
8,15.999888590638458
10,54997435.27815389
1921,0.0
1958,0.0
2,1, 7,21, 0, 4,20.00,30.00,SummerDesignDay
8,15.986249958378048
10,54997435.27815389
1921,0.0
1958,0.0
2,1, 7,21, 0, 4,30.00,40.00,SummerDesignDay
8,15.972604339068287
10,54997435.27815389
1921,0.0
1958,0.0
2,1, 7,21, 0, 4,40.00,50.00,SummerDesignDay
8,15.958946698244901
10,54997435.27815389
1921,0.0
1958,0.0
2,1, 7,21, 0, 4,50.00,60.00,SummerDesignDay
8,15.945287702730492
10,54997435.27815389
1921,0.0
1958,0.0
2,1, 7,21, 0, 4, 0.00,60.00,SummerDesignDay
927,24.360094905819165
967,25.014563851691468
1007,25.38804936672878
1047,25.19930246042881
1087,24.5898755806992
1127,25.97870916535136
1167,26.35316560157226
1207,26.185503579372534
1247,26.6251909208266
1287,26.85723999358915
1327,24.833118744251907
1367,24.8209987749146
1407,24.594991842260116
1447,25.568387010757566
1487,24.922887798983479
1527,24.91104262510621
1567,24.623700124944194
1607,25.81331880354276
1647,24.6776331322109
1687,24.66560756802323
1727,24.387955465983607
1767,25.54567216197047
1807,24.334711514877655
2,1, 7,21, 0, 5, 0.00,10.00,SummerDesignDay
8,15.936177990809899
10,54997435.27815389
1921,0.0
1958,0.0
2,1, 7,21, 0, 5,10.00,20.00,SummerDesignDay
8,15.92705949178547
10,54997435.27815389
1921,0.0
1958,0.0
2,1, 7,21, 0, 5,20.00,30.00,SummerDesignDay
8,15.917943710706878
10,54997435.27815389
1921,0.0
1958,0.0
2,1, 7,21, 0, 5,30.00,40.00,SummerDesignDay
8,15.908825155859729
10,54997435.27815389
1921,0.0
1958,0.0
2,1, 7,21, 0, 5,40.00,50.00,SummerDesignDay
8,15.89970321878413
10,54997435.27815389
1921,0.0
1958,0.0
2,1, 7,21, 0, 5,50.00,60.00,SummerDesignDay
8,15.89058503181825
10,54997435.27815389
1921,0.0
1958,0.0
2,1, 7,21, 0, 5, 0.00,60.00,SummerDesignDay
927,24.287399299836279
967,24.94740678974854
1007,25.328411626025969
1047,25.070109466408558
1087,24.49570704401798
1127,25.874557314902505
1167,26.23855268970568
1207,26.002809023226278
1247,26.543814658959794
1287,26.781684259174054
1327,24.714522989507129
1367,24.90535824040451
1407,24.57438149674697
1447,25.389088205205966
1487,24.7810002072455
1527,24.93928299003669
1567,24.568276950012593
1607,25.596707793202154
1647,24.474458034079779
1687,24.63225160384563
1727,24.27136993095735
1767,25.27005650611208
1807,24.187575282987696
2,1, 7,21, 0, 6, 0.00,10.00,SummerDesignDay
8,15.89970321878413
10,54997435.27815389
1921,0.0
1958,0.0
2,1, 7,21, 0, 6,10.00,20.00,SummerDesignDay
8,15.908825155859729
10,54997435.27815389
1921,0.0
1958,0.0
2,1, 7,21, 0, 6,20.00,30.00,SummerDesignDay
8,15.917943710706878
10,54997435.27815389
1921,0.0
1958,0.0
2,1, 7,21, 0, 6,30.00,40.00,SummerDesignDay
8,15.92705949178547
10,54997435.27815389
1921,0.0
1958,0.0
2,1, 7,21, 0, 6,40.00,50.00,SummerDesignDay
8,15.936177990809899
10,54997435.27815389
1921,0.0
1958,0.0
2,1, 7,21, 0, 6,50.00,60.00,SummerDesignDay
8,15.945287702730492
10,54997435.27815389
1921,0.0
1958,0.0
2,1, 7,21, 0, 6, 0.00,60.00,SummerDesignDay
927,24.239422137770068
967,24.97114522041853
1007,25.35530056461566
1047,25.030458909478214
1087,24.430154103745666
1127,25.833970302525189
1167,26.18086955572382
1207,25.87726426885342
1247,26.471556158874376
1287,26.715368898505074
1327,24.820632675320196
1367,27.927189126348379
1407,25.277760021338897
1447,25.435666904687456
1487,24.860143645329868
1527,27.80511695950408
1567,25.213196142069106
1607,25.599144550898648
1647,24.494659417771236
1687,27.428051978964594
1727,24.858357803823386
1767,25.21573583879717
1807,24.319800976466714
2,1, 7,21, 0, 7, 0.00,10.00,SummerDesignDay
8,15.977153459569559
10,54997435.27815389
1921,0.0
1958,708897675.5547999
2,1, 7,21, 0, 7,10.00,20.00,SummerDesignDay
8,16.00898303120887
10,54997435.27815389
1921,0.0
1958,56645848.36687331
2,1, 7,21, 0, 7,20.00,30.00,SummerDesignDay
8,16.040775235496488
10,54997435.27815389
1921,0.0
1958,366118506.4261757
2,1, 7,21, 0, 7,30.00,40.00,SummerDesignDay
8,16.072525945973774
10,54997435.27815389
1921,0.0
1958,444450801.8531878
2,1, 7,21, 0, 7,40.00,50.00,SummerDesignDay
8,16.104245538982189
10,54997435.27815389
1921,0.0
1958,325864894.02001479
2,1, 7,21, 0, 7,50.00,60.00,SummerDesignDay
8,16.135928228205914
10,54997435.27815389
1921,0.0
1958,346115456.3898709
2,1, 7,21, 0, 7, 0.00,60.00,SummerDesignDay
927,23.95807541906593
967,23.87230369908767
1007,23.856261845277158
1047,23.872204971052289
1087,23.942405851358275
1127,23.97896203978689
1167,23.978668865945538
1207,23.978817869439938
1247,26.425534806522163
1287,26.674524159811086
1327,23.953131770522814
1367,23.99874355402974
1407,23.922335445070048
1447,23.93389668167104
1487,23.95973297831958
1527,23.999885734103175
1567,23.95834074482274
1607,23.9437074009029
1647,23.974292994106013
1687,23.996409827353078
1727,23.962617448215054
1767,23.947595473661754
1807,24.78089375130278
2,1, 7,21, 0, 8, 0.00,10.00,SummerDesignDay
8,16.212718231329928
10,152144347.0341472
1921,0.0
1958,410705206.8386305
2,1, 7,21, 0, 8,10.00,20.00,SummerDesignDay
8,16.289295095914626
10,152144347.0341472
1921,0.0
1958,418793790.01124319
2,1, 7,21, 0, 8,20.00,30.00,SummerDesignDay
8,16.365658732225424
10,152144347.0341472
1921,0.0
1958,426821731.4521788
2,1, 7,21, 0, 8,30.00,40.00,SummerDesignDay
8,16.44181049723187
10,152144347.0341472
1921,0.0
1958,435040305.4269179
2,1, 7,21, 0, 8,40.00,50.00,SummerDesignDay
8,16.517756147764346
10,152144347.0341472
1921,0.0
1958,442692981.8209587
2,1, 7,21, 0, 8,50.00,60.00,SummerDesignDay
8,16.593486849767513
10,152144347.0341472
1921,0.0
1958,449981995.536903
2,1, 7,21, 0, 8, 0.00,60.00,SummerDesignDay
927,23.999999999823044
967,23.999999996048247
1007,23.999999998153105
1047,23.999999996712643
1087,23.999999999257978
1127,24.00000000000004
1167,24.00000000000003
1207,24.000000000000026
1247,26.409597823912706
1287,26.658906010699995
1327,23.999999999664497
1367,24.000000000000005
1407,23.999999998901417
1447,23.999999998207909
1487,23.999999999644147
1527,24.000000000000019
1567,23.999999999019157
1607,23.999999997714409
1647,23.999999999951404
1687,24.000000000000019
1727,23.99999999967041
1767,23.999999999275244
1807,25.440460974447267
2,1, 7,21, 0, 9, 0.00,10.00,SummerDesignDay
8,16.677878063199516
10,405718258.7577262
1921,0.0
1958,661872400.4042633
2,1, 7,21, 0, 9,10.00,20.00,SummerDesignDay
8,16.76200946235728
10,405718258.7577262
1921,0.0
1958,681838830.9025341
2,1, 7,21, 0, 9,20.00,30.00,SummerDesignDay
8,16.845887031033866
10,405718258.7577262
1921,0.0
1958,696213962.0995941
2,1, 7,21, 0, 9,30.00,40.00,SummerDesignDay
8,16.929502190751337
10,405718258.7577262
1921,0.0
1958,708657908.8150724
2,1, 7,21, 0, 9,40.00,50.00,SummerDesignDay
8,17.012861351115086
10,405718258.7577262
1921,0.0
1958,719464937.4803218
2,1, 7,21, 0, 9,50.00,60.00,SummerDesignDay
8,17.09597057951627
10,405718258.7577262
1921,0.0
1958,727922335.042253
2,1, 7,21, 0, 9, 0.00,60.00,SummerDesignDay
927,24.00000000000001
967,24.000000000000005
1007,24.000000000000044
1047,24.000000000000026
1087,23.999999999999976
1127,24.0
1167,23.999999999999969
1207,24.000000000000015
1247,26.428420114442277
1287,26.675424828247974
1327,24.000000000000033
1367,24.000000000000047
1407,24.000000000000015
1447,24.00000000000003
1487,24.000000000000019
1527,24.00000000000007
1567,23.999999999999984
1607,24.000000000000047
1647,24.000000000000015
1687,24.000000000000087
1727,24.00000000000001
1767,24.000000000000033
1807,26.17330634112632
2,1, 7,21, 0,10, 0.00,10.00,SummerDesignDay
8,17.17011313897211
10,456433041.10244187
1921,0.0
1958,775135141.5318856
2,1, 7,21, 0,10,10.00,20.00,SummerDesignDay
8,17.24405314489198
10,456433041.10244187
1921,0.0
1958,782926254.62342
2,1, 7,21, 0,10,20.00,30.00,SummerDesignDay
8,17.317792342150307
10,456433041.10244187
1921,0.0
1958,790186155.7892209
2,1, 7,21, 0,10,30.00,40.00,SummerDesignDay
8,17.391330750865035
10,456433041.10244187
1921,0.0
1958,796221225.8483583
2,1, 7,21, 0,10,40.00,50.00,SummerDesignDay
8,17.464669750704549
10,456433041.10244187
1921,0.0
1958,801571966.3760182
2,1, 7,21, 0,10,50.00,60.00,SummerDesignDay
8,17.537810589481837
10,456433041.10244187
1921,0.0
1958,806298646.1107677
2,1, 7,21, 0,10, 0.00,60.00,SummerDesignDay
927,24.00000000000001
967,24.00000000000003
1007,24.000000000000047
1047,24.00000000000001
1087,24.00000000000003
1127,24.00000000000007
1167,24.000000000000019
1207,24.00000000000004
1247,26.483634384302517
1287,26.736500397899648
1327,23.999999999999984
1367,24.0
1407,24.00000000000004
1447,24.000000000000076
1487,24.000000000000087
1527,24.000000000000218
1567,24.0
1607,24.00000000000003
1647,24.00000000000006
1687,23.9999999999998
1727,23.999999999999987
1767,23.999999999999984
1807,26.922276471371988
2,1, 7,21, 0,11, 0.00,10.00,SummerDesignDay
8,17.60218312883583
10,456433041.10244187
1921,0.0
1958,809931898.2521671
2,1, 7,21, 0,11,10.00,20.00,SummerDesignDay
8,17.666401914182499
10,456433041.10244187
1921,0.0
1958,813001671.2842568
2,1, 7,21, 0,11,20.00,30.00,SummerDesignDay
8,17.73046886665172
10,456433041.10244187
1921,0.0
1958,815994698.3758818
2,1, 7,21, 0,11,30.00,40.00,SummerDesignDay
8,17.794377337180749
10,456433041.10244187
1921,0.0
1958,818990224.5254448
2,1, 7,21, 0,11,40.00,50.00,SummerDesignDay
8,17.858140091722729
10,456433041.10244187
1921,0.0
1958,822314399.0429393
2,1, 7,21, 0,11,50.00,60.00,SummerDesignDay
8,17.921751671476274
10,456433041.10244187
1921,0.0
1958,826018768.1993787
2,1, 7,21, 0,11, 0.00,60.00,SummerDesignDay
927,24.00000000000004
967,24.000000000000026
1007,24.00000000000004
1047,24.000000000000033
1087,24.0
1127,24.000000000000005
1167,24.000000000000019
1207,24.0
1247,26.559604032949996
1287,26.832070177777429
1327,24.00000000000003
1367,23.999999999999927
1407,24.00000000000007
1447,24.000000000000044
1487,24.000000000000058
1527,24.000000000000069
1567,24.000000000000058
1607,24.0
1647,24.00000000000006
1687,24.000000000000015
1727,24.000000000000019
1767,24.000000000000019
1807,27.612403129717163
2,1, 7,21, 0,12, 0.00,10.00,SummerDesignDay
8,17.964074041059168
10,456433041.10244187
1921,0.0
1958,829025461.8830491
2,1, 7,21, 0,12,10.00,20.00,SummerDesignDay
8,18.00633512830953
10,456433041.10244187
1921,0.0
1958,832499549.6803737
2,1, 7,21, 0,12,20.00,30.00,SummerDesignDay
8,18.048524057857607
10,456433041.10244187
1921,0.0
1958,836423496.7013348
2,1, 7,21, 0,12,30.00,40.00,SummerDesignDay
8,18.090647246552004
10,456433041.10244187
1921,0.0
1958,840651239.112451
2,1, 7,21, 0,12,40.00,50.00,SummerDesignDay
8,18.132703529720616
10,456433041.10244187
1921,0.0
1958,845003873.0603247
2,1, 7,21, 0,12,50.00,60.00,SummerDesignDay
8,18.17469964536842
10,456433041.10244187
1921,0.0
1958,849202903.3469188
2,1, 7,21, 0,12, 0.00,60.00,SummerDesignDay
927,24.0
967,24.000000000000015
1007,24.000000000000015
1047,24.0
1087,24.000000000000044
1127,24.0
1167,23.999999999999948
1207,24.00000000000004
1247,26.64041317880835
1287,26.930204804014257
1327,24.00000000000007
1367,23.999999999999998
1407,23.99999999999993
1447,24.00000000000004
1487,24.000000000000119
1527,24.000000000000033
1567,23.99999999999999
1607,24.000000000000019
1647,24.000000000000055
1687,23.99999999999997
1727,24.000000000000076
1767,24.0
1807,28.185555845634938
2,1, 7,21, 0,13, 0.00,10.00,SummerDesignDay
8,18.208245339828517
10,456433041.10244187
1921,0.0
1958,822174342.7289344
2,1, 7,21, 0,13,10.00,20.00,SummerDesignDay
8,18.241744233723979
10,456433041.10244187
1921,0.0
1958,820959948.6510601
2,1, 7,21, 0,13,20.00,30.00,SummerDesignDay
8,18.2752069112248
10,456433041.10244187
1921,0.0
1958,819015898.924581
2,1, 7,21, 0,13,30.00,40.00,SummerDesignDay
8,18.30862693969058
10,456433041.10244187
1921,0.0
1958,817880001.1302447
2,1, 7,21, 0,13,40.00,50.00,SummerDesignDay
8,18.342005526737105
10,456433041.10244187
1921,0.0
1958,817798098.3086748
2,1, 7,21, 0,13,50.00,60.00,SummerDesignDay
8,18.375341817792614
10,456433041.10244187
1921,0.0
1958,818540838.6524309
2,1, 7,21, 0,13, 0.00,60.00,SummerDesignDay
927,24.00000000000004
967,24.00000000000007
1007,24.00000000000006
1047,24.000000000000044
1087,24.00000000000003
1127,24.000000000000019
1167,24.000000000000019
1207,24.000000000000019
1247,26.723543998882634
1287,27.024974540591058
1327,24.000000000000076
1367,23.999999999999934
1407,24.0
1447,24.00000000000004
1487,24.00000000000001
1527,24.00000000000004
1567,24.00000000000004
1607,24.000000000000019
1647,24.00000000000007
1687,23.999999999999998
1727,24.000000000000019
1767,24.000000000000019
1807,28.606770908278237
2,1, 7,21, 0,14, 0.00,10.00,SummerDesignDay
8,18.39615811087369
10,456433041.10244187
1921,0.0
1958,819242485.8143741
2,1, 7,21, 0,14,10.00,20.00,SummerDesignDay
8,18.416957955881725
10,456433041.10244187
1921,0.0
1958,820565480.6635153
2,1, 7,21, 0,14,20.00,30.00,SummerDesignDay
8,18.43773680274513
10,456433041.10244187
1921,0.0
1958,822485747.7090433
2,1, 7,21, 0,14,30.00,40.00,SummerDesignDay
8,18.458504433044504
10,456433041.10244187
1921,0.0
1958,825049099.9376465
2,1, 7,21, 0,14,40.00,50.00,SummerDesignDay
8,18.479250383250578
10,456433041.10244187
1921,0.0
1958,828364949.8404051
2,1, 7,21, 0,14,50.00,60.00,SummerDesignDay
8,18.499985692685468
10,456433041.10244187
1921,0.0
1958,832477016.5261574
2,1, 7,21, 0,14, 0.00,60.00,SummerDesignDay
927,24.000000000000015
967,24.00000000000003
1007,24.0
1047,24.000000000000044
1087,24.00000000000003
1127,24.000000000000019
1167,24.00000000000006
1207,23.999999999999984
1247,26.80743389858677
1287,27.118448986609566
1327,24.000000000000026
1367,24.000000000000119
1407,24.00000000000007
1447,24.000000000000026
1487,24.00000000000004
1527,24.000000000000147
1567,24.0
1607,24.000000000000055
1647,24.000000000000058
1687,24.0
1727,24.000000000000005
1767,24.000000000000026
1807,28.854687702505019
2,1, 7,21, 0,15, 0.00,10.00,SummerDesignDay
8,18.499985692685468
10,456433041.10244187
1921,0.0
1958,865230222.4558871
2,1, 7,21, 0,15,10.00,20.00,SummerDesignDay
8,18.499985692685468
10,456433041.10244187
1921,0.0
1958,874276752.5172846
2,1, 7,21, 0,15,20.00,30.00,SummerDesignDay
8,18.499985692685468
10,456433041.10244187
1921,0.0
1958,884613007.1095032
2,1, 7,21, 0,15,30.00,40.00,SummerDesignDay
8,18.499985692685468
10,456433041.10244187
1921,0.0
1958,893758048.5620744
2,1, 7,21, 0,15,40.00,50.00,SummerDesignDay
8,18.499985692685468
10,456433041.10244187
1921,0.0
1958,901176293.9676045
2,1, 7,21, 0,15,50.00,60.00,SummerDesignDay
8,18.499985692685468
10,456433041.10244187
1921,0.0
1958,907208208.6698426
2,1, 7,21, 0,15, 0.00,60.00,SummerDesignDay
927,24.000000000000005
967,24.0
1007,24.000000000000019
1047,24.000000000000019
1087,23.99999999999999
1127,23.999999999999934
1167,24.000000000000076
1207,23.999999999999955
1247,26.888909942388496
1287,27.206963441960455
1327,24.00000000000007
1367,24.000000000000129
1407,24.000000000000005
1447,24.00000000000003
1487,23.999999999999969
1527,24.000000000000026
1567,24.000000000000026
1607,23.999999999999959
1647,24.00000000000008
1687,24.00000000000003
1727,24.000000000000026
1767,24.000000000000033
1807,28.910150705036075
2,1, 7,21, 0,16, 0.00,10.00,SummerDesignDay
8,18.475102970177127
10,456433041.10244187
1921,0.0
1958,910936033.2808111
2,1, 7,21, 0,16,10.00,20.00,SummerDesignDay
8,18.450201543271235
10,456433041.10244187
1921,0.0
1958,913999155.698455
2,1, 7,21, 0,16,20.00,30.00,SummerDesignDay
8,18.425271777286019
10,456433041.10244187
1921,0.0
1958,916500726.5356932
2,1, 7,21, 0,16,30.00,40.00,SummerDesignDay
8,18.40031825447926
10,456433041.10244187
1921,0.0
1958,918502043.8802536
2,1, 7,21, 0,16,40.00,50.00,SummerDesignDay
8,18.375341817792614
10,456433041.10244187
1921,0.0
1958,920092053.716282
2,1, 7,21, 0,16,50.00,60.00,SummerDesignDay
8,18.350347174046595
10,456433041.10244187
1921,0.0
1958,921408906.2079105
2,1, 7,21, 0,16, 0.00,60.00,SummerDesignDay
927,24.00000000000001
967,23.99999999999997
1007,24.000000000000033
1047,24.000000000000033
1087,24.000000000000058
1127,23.99999999999997
1167,24.000000000000026
1207,24.00000000000008
1247,26.968253217782743
1287,27.29028758198722
1327,24.000000000000026
1367,24.000000000000015
1407,23.99999999999994
1447,24.000000000000047
1487,23.999999999999987
1527,24.000000000000076
1567,23.999999999999976
1607,24.000000000000069
1647,24.00000000000006
1687,24.0
1727,23.999999999999984
1767,24.000000000000097
1807,28.754991536273569
2,1, 7,21, 0,17, 0.00,10.00,SummerDesignDay
8,18.316978860635527
10,456433041.10244187
1921,0.0
1958,921860979.2443009
2,1, 7,21, 0,17,10.00,20.00,SummerDesignDay
8,18.2835693630182
10,456433041.10244187
1921,0.0
1958,921899865.6240552
2,1, 7,21, 0,17,20.00,30.00,SummerDesignDay
8,18.250118050746214
10,456433041.10244187
1921,0.0
1958,921488921.4777801
2,1, 7,21, 0,17,30.00,40.00,SummerDesignDay
8,18.216624325548968
10,456433041.10244187
1921,0.0
1958,920563560.4315746
2,1, 7,21, 0,17,40.00,50.00,SummerDesignDay
8,18.183088861944893
10,456433041.10244187
1921,0.0
1958,919085523.6108779
2,1, 7,21, 0,17,50.00,60.00,SummerDesignDay
8,18.149510843493635
10,456433041.10244187
1921,0.0
1958,916965077.9242451
2,1, 7,21, 0,17, 0.00,60.00,SummerDesignDay
927,24.00000000000001
967,24.000000000000019
1007,24.000000000000019
1047,24.0
1087,24.000000000000019
1127,23.99999999999997
1167,23.999999999999955
1207,24.000000000000126
1247,27.0447040504537
1287,27.368836238771466
1327,24.0
1367,23.999999999999976
1407,23.99999999999996
1447,24.000000000000076
1487,24.000000000000058
1527,23.999999999999984
1567,24.000000000000019
1607,23.999999999999948
1647,23.999999999999948
1687,24.00000000000008
1727,24.0
1767,24.0
1807,28.401975718225385
2,1, 7,21, 0,18, 0.00,10.00,SummerDesignDay
8,18.10748062898272
10,425478288.16159018
1921,0.0
1958,886249284.8753871
2,1, 7,21, 0,18,10.00,20.00,SummerDesignDay
8,18.065379091048376
10,425478288.16159018
1921,0.0
1958,879427940.4429847
2,1, 7,21, 0,18,20.00,30.00,SummerDesignDay
8,18.023216461654344
10,425478288.16159018
1921,0.0
1958,872588256.4077633
2,1, 7,21, 0,18,30.00,40.00,SummerDesignDay
8,17.980987605947548
10,425478288.16159018
1921,0.0
1958,865960053.4374293
2,1, 7,21, 0,18,40.00,50.00,SummerDesignDay
8,17.93869205826644
10,425478288.16159018
1921,0.0
1958,859866357.1899481
2,1, 7,21, 0,18,50.00,60.00,SummerDesignDay
8,17.89632405402092
10,425478288.16159018
1921,0.0
1958,854055084.9135773
2,1, 7,21, 0,18, 0.00,60.00,SummerDesignDay
927,24.0
967,24.00000000000003
1007,24.000000000000047
1047,24.000000000000055
1087,24.000000000000019
1127,23.999999999999998
1167,23.99999999999996
1207,24.000000000000104
1247,27.114921067480684
1287,27.43981425664441
1327,24.000000000000069
1367,24.00000000000008
1407,23.999999999999998
1447,24.000000000000026
1487,24.000000000000058
1527,23.999999999999987
1567,24.000000000000005
1607,23.99999999999981
1647,24.000000000000047
1687,24.000000000000047
1727,23.999999999999959
1767,23.99999999999981
1807,27.911658779201067
2,1, 7,21, 0,19, 0.00,10.00,SummerDesignDay
8,17.832657261722244
10,253573911.72357888
1921,0.0
1958,733479396.0336102
2,1, 7,21, 0,19,10.00,20.00,SummerDesignDay
8,17.768833985856515
10,253573911.72357888
1921,0.0
1958,717113870.93123
2,1, 7,21, 0,19,20.00,30.00,SummerDesignDay
8,17.704859478274899
10,253573911.72357888
1921,0.0
1958,702480839.4225987
2,1, 7,21, 0,19,30.00,40.00,SummerDesignDay
8,17.640731707059819
10,253573911.72357888
1921,0.0
1958,688991940.3344302
2,1, 7,21, 0,19,40.00,50.00,SummerDesignDay
8,17.576451319157326
10,253573911.72357888
1921,0.0
1958,676399668.7524994
2,1, 7,21, 0,19,50.00,60.00,SummerDesignDay
8,17.512016904905339
10,253573911.72357888
1921,0.0
1958,663778411.9896927
2,1, 7,21, 0,19, 0.00,60.00,SummerDesignDay
927,24.000000000000015
967,24.00000000000003
1007,24.0
1047,24.00000000000004
1087,24.000000000000033
1127,24.000000000000076
1167,24.000000000000058
1207,24.0000000000001
1247,27.16883328972907
1287,27.492152234511115
1327,23.99999999999997
1367,24.000000000000005
1407,23.999999999999984
1447,24.000000000000115
1487,24.000000000000019
1527,24.000000000000019
1567,24.00000000000004
1607,24.000000000000005
1647,24.000000000000005
1687,24.000000000000019
1727,24.00000000000007
1767,24.000000000000087
1807,27.29360380055787
2,1, 7,21, 0,20, 0.00,10.00,SummerDesignDay
8,17.464669750704549
10,152144347.0341472
1921,0.0
1958,589463233.1854892
2,1, 7,21, 0,20,10.00,20.00,SummerDesignDay
8,17.417239543286124
10,152144347.0341472
1921,0.0
1958,571243951.2184682
2,1, 7,21, 0,20,20.00,30.00,SummerDesignDay
8,17.369720602565694
10,152144347.0341472
1921,0.0
1958,552860174.4031981
2,1, 7,21, 0,20,30.00,40.00,SummerDesignDay
8,17.32212315858905
10,152144347.0341472
1921,0.0
1958,532737217.6282142
2,1, 7,21, 0,20,40.00,50.00,SummerDesignDay
8,17.27444149556641
10,152144347.0341472
1921,0.0
1958,511234624.2537872
2,1, 7,21, 0,20,50.00,60.00,SummerDesignDay
8,17.22667133087272
10,152144347.0341472
1921,0.0
1958,489401860.0951721
2,1, 7,21, 0,20, 0.00,60.00,SummerDesignDay
927,24.000000000000015
967,24.0
1007,24.000000000000019
1047,24.000000000000033
1087,24.000000000000019
1127,24.000000000000033
1167,24.000000000000097
1207,24.000000000000104
1247,27.191012535204555
1287,27.50900192338143
1327,24.000000000000019
1367,24.000000000000026
1407,24.000000000000044
1447,23.999999999999987
1487,23.999999999999987
1527,24.000000000000033
1567,24.000000000000019
1607,24.000000000000087
1647,24.00000000000006
1687,23.999999999999959
1727,24.000000000000019
1767,24.000000000000058
1807,26.575259937504915
2,1, 7,21, 0,21, 0.00,10.00,SummerDesignDay