Program Version,EnergyPlus, Version 8.9.0-eba93e8e1b, YMD=2018.09.18 17:10
1,5,Environment Title[],Latitude[deg],Longitude[deg],Time Zone[],Elevation[m]
2,8,Day of Simulation[],Month[],Day of Month[],DST Indicator[1=yes 0=no],Hour[],StartMinute[],EndMinute[],DayType
3,5,Cumulative Day of Simulation[],Month[],Day of Month[],DST Indicator[1=yes 0=no],DayType  ! When Daily Report Variables Requested
4,2,Cumulative Days of Simulation[],Month[]  ! When Monthly Report Variables Requested
5,1,Cumulative Days of Simulation[] ! When Run Period Report Variables Requested
6,1,Calendar Year of Simulation[] ! When Annual Report Variables Requested
7,9,Environment,Site Outdoor Air Drybulb Temperature [C] !Monthly [Value,Min,Day,Hour,Minute,Max,Day,Hour,Minute]
8,1,Environment,Site Outdoor Air Wetbulb Temperature [C] !TimeStep
357,1,ATTIC ZN,Zone Air Temperature [C] !Hourly
358,7,ATTIC ZN,Zone Air Relative Humidity [%] !Daily [Value,Min,Hour,Minute,Max,Hour,Minute]
397,1,CORE_ZN ZN,Zone Air Temperature [C] !Hourly
398,7,CORE_ZN ZN,Zone Air Relative Humidity [%] !Daily [Value,Min,Hour,Minute,Max,Hour,Minute]
437,1,PERIMETER_ZN_1 ZN,Zone Air Temperature [C] !Hourly
438,7,PERIMETER_ZN_1 ZN,Zone Air Relative Humidity [%] !Daily [Value,Min,Hour,Minute,Max,Hour,Minute]
477,1,PERIMETER_ZN_2 ZN,Zone Air Temperature [C] !Hourly
478,7,PERIMETER_ZN_2 ZN,Zone Air Relative Humidity [%] !Daily [Value,Min,Hour,Minute,Max,Hour,Minute]
517,1,PERIMETER_ZN_3 ZN,Zone Air Temperature [C] !Hourly
518,7,PERIMETER_ZN_3 ZN,Zone Air Relative Humidity [%] !Daily [Value,Min,Hour,Minute,Max,Hour,Minute]
557,1,PERIMETER_ZN_4 ZN,Zone Air Temperature [C] !Hourly
558,7,PERIMETER_ZN_4 ZN,Zone Air Relative Humidity [%] !Daily [Value,Min,Hour,Minute,Max,Hour,Minute]
10,1,Electricity:Facility [J] !TimeStep
708,1,DistrictCooling:Facility [J] !TimeStep
671,1,DistrictHeating:Facility [J] !TimeStep
End of Data Dictionary
1,VANCOUVER INTL AP ANN CLG .4% CONDNS DB=>MWB,  49.20,-123.18,  -8.00,   4.30
2,1, 7,21, 0, 1, 0.00,10.00,SummerDesignDay
8,16.352199953652215
10,588883.2432939032
671,0.0
708,0.0
2,1, 7,21, 0, 1,10.00,20.00,SummerDesignDay
8,16.3252576442975
10,588883.2432939032
671,0.0
708,0.0
2,1, 7,21, 0, 1,20.00,30.00,SummerDesignDay
8,16.2982938306074
10,588883.2432939032
671,0.0
708,0.0
2,1, 7,21, 0, 1,30.00,40.00,SummerDesignDay
8,16.271298954341999
10,588883.2432939032
671,0.0
708,0.0
2,1, 7,21, 0, 1,40.00,50.00,SummerDesignDay
8,16.244276700157607
10,588883.2432939032
671,0.0
708,0.0
2,1, 7,21, 0, 1,50.00,60.00,SummerDesignDay
8,16.217228272321866
10,588883.2432939032
671,0.0
708,0.0
2,1, 7,21, 0, 1, 0.00,60.00,SummerDesignDay
357,24.92653301609454
397,24.99174334410594
437,24.902688528113449
477,25.029162838647865
517,24.827692002185754
557,25.42337366934419
2,1, 7,21, 0, 2, 0.00,10.00,SummerDesignDay
8,16.199184445315237
10,588883.2432939032
671,0.0
708,0.0
2,1, 7,21, 0, 2,10.00,20.00,SummerDesignDay
8,16.181123823551326
10,588883.2432939032
671,0.0
708,0.0
2,1, 7,21, 0, 2,20.00,30.00,SummerDesignDay
8,16.163056857826836
10,588883.2432939032
671,0.0
708,0.0
2,1, 7,21, 0, 2,30.00,40.00,SummerDesignDay
8,16.144971888810827
10,588883.2432939032
671,0.0
708,0.0
2,1, 7,21, 0, 2,40.00,50.00,SummerDesignDay
8,16.12688104636919
10,588883.2432939032
671,0.0
708,0.0
2,1, 7,21, 0, 2,50.00,60.00,SummerDesignDay
8,16.108773026303486
10,588883.2432939032
671,0.0
708,0.0
2,1, 7,21, 0, 2, 0.00,60.00,SummerDesignDay
357,24.74857813948977
397,24.835073159676019
437,24.71373883763466
477,24.838641544979894
517,24.647640127039499
557,25.20500575647868
2,1, 7,21, 0, 3, 0.00,10.00,SummerDesignDay
8,16.095187997840726
10,588883.2432939032
671,0.0
708,0.0
2,1, 7,21, 0, 3,10.00,20.00,SummerDesignDay
8,16.08159647937563
10,588883.2432939032
671,0.0
708,0.0
2,1, 7,21, 0, 3,20.00,30.00,SummerDesignDay
8,16.067992103020477
10,588883.2432939032
671,0.0
708,0.0
2,1, 7,21, 0, 3,30.00,40.00,SummerDesignDay
8,16.054387489767213
10,588883.2432939032
671,0.0
708,0.0
2,1, 7,21, 0, 3,40.00,50.00,SummerDesignDay
8,16.040775235496488
10,588883.2432939032
671,0.0
708,0.0
2,1, 7,21, 0, 3,50.00,60.00,SummerDesignDay
8,16.027151463515208
10,588883.2432939032
671,0.0
708,0.0
2,1, 7,21, 0, 3, 0.00,60.00,SummerDesignDay
357,24.58249113115383
397,24.68953871638006
437,24.53908890517206
477,24.660941602406749
517,24.481058299934458
557,24.999959998971986
2,1, 7,21, 0, 4, 0.00,10.00,SummerDesignDay
8,16.013526309671386
10,588883.2432939032
671,0.0
708,0.0
2,1, 7,21, 0, 4,10.00,20.00,SummerDesignDay
8,15.999888590638458
10,588883.2432939032
671,0.0
708,0.0
2,1, 7,21, 0, 4,20.00,30.00,SummerDesignDay
8,15.986249958378048
10,588883.2432939032
671,0.0
708,0.0
2,1, 7,21, 0, 4,30.00,40.00,SummerDesignDay
8,15.972604339068287
10,588883.2432939032
671,0.0
708,0.0
2,1, 7,21, 0, 4,40.00,50.00,SummerDesignDay
8,15.958946698244901
10,588883.2432939032
671,0.0
708,0.0
2,1, 7,21, 0, 4,50.00,60.00,SummerDesignDay
8,15.945287702730492
10,588883.2432939032
671,0.0
708,0.0
2,1, 7,21, 0, 4, 0.00,60.00,SummerDesignDay
357,24.42214501218518
397,24.549214229366169
437,24.371921608751224
477,24.490317074296298
517,24.32121554878348
557,24.803375713870709
2,1, 7,21, 0, 5, 0.00,10.00,SummerDesignDay
8,15.936177990809899
10,588883.2432939032
671,0.0
708,0.0
2,1, 7,21, 0, 5,10.00,20.00,SummerDesignDay
8,15.92705949178547
10,588883.2432939032
671,0.0
708,0.0
2,1, 7,21, 0, 5,20.00,30.00,SummerDesignDay
8,15.917943710706878
10,588883.2432939032
671,0.0
708,0.0
2,1, 7,21, 0, 5,30.00,40.00,SummerDesignDay
8,15.908825155859729
10,588883.2432939032
671,0.0
708,0.0
2,1, 7,21, 0, 5,40.00,50.00,SummerDesignDay
8,15.89970321878413
10,588883.2432939032
671,0.0
708,0.0
2,1, 7,21, 0, 5,50.00,60.00,SummerDesignDay
8,15.89058503181825
10,588883.2432939032
671,0.0
708,0.0
2,1, 7,21, 0, 5, 0.00,60.00,SummerDesignDay
357,24.297695344786108
397,24.41533229543567
437,24.2208803879317
477,24.436257012332445
517,24.214957042272365
557,24.624337967665526
2,1, 7,21, 0, 6, 0.00,10.00,SummerDesignDay
8,15.89970321878413
10,588883.2432939032
671,0.0
708,0.0
2,1, 7,21, 0, 6,10.00,20.00,SummerDesignDay
8,15.908825155859729
10,588883.2432939032
671,0.0
708,0.0
2,1, 7,21, 0, 6,20.00,30.00,SummerDesignDay
8,15.917943710706878
10,588883.2432939032
671,0.0
708,0.0
2,1, 7,21, 0, 6,30.00,40.00,SummerDesignDay
8,15.92705949178547
10,588883.2432939032
671,0.0
708,0.0
2,1, 7,21, 0, 6,40.00,50.00,SummerDesignDay
8,15.936177990809899
10,588883.2432939032
671,0.0
708,0.0
2,1, 7,21, 0, 6,50.00,60.00,SummerDesignDay
8,15.945287702730492
10,588883.2432939032
671,0.0
708,0.0
2,1, 7,21, 0, 6, 0.00,60.00,SummerDesignDay
357,24.540622350730179
397,24.401792210410205
437,24.245335195664955
477,25.75402591658133
517,24.499635624768826
557,24.606490642846297
2,1, 7,21, 0, 7, 0.00,10.00,SummerDesignDay
8,15.977153459569559
10,588883.2432939032
671,0.0
708,4852172.583829519
2,1, 7,21, 0, 7,10.00,20.00,SummerDesignDay
8,16.00898303120887
10,588883.2432939032
671,0.0
708,279604.1608310111
2,1, 7,21, 0, 7,20.00,30.00,SummerDesignDay
8,16.040775235496488
10,588883.2432939032
671,0.0
708,3021932.481339118
2,1, 7,21, 0, 7,30.00,40.00,SummerDesignDay
8,16.072525945973774
10,588883.2432939032
671,0.0
708,3153513.880879992
2,1, 7,21, 0, 7,40.00,50.00,SummerDesignDay
8,16.104245538982189
10,588883.2432939032
671,0.0
708,2650707.6208819786
2,1, 7,21, 0, 7,50.00,60.00,SummerDesignDay
8,16.135928228205914
10,588883.2432939032
671,0.0
708,2739592.866958452
2,1, 7,21, 0, 7, 0.00,60.00,SummerDesignDay
357,25.065480888759937
397,23.948474720179619
437,23.9776533879228
477,23.97473383259697
517,23.948685114905549
557,23.950448683090455
2,1, 7,21, 0, 8, 0.00,10.00,SummerDesignDay
8,16.212718231329928
10,1462359.638864261
671,0.0
708,3368394.051260881
2,1, 7,21, 0, 8,10.00,20.00,SummerDesignDay
8,16.289295095914626
10,1462359.638864261
671,0.0
708,3495847.2218655089
2,1, 7,21, 0, 8,20.00,30.00,SummerDesignDay
8,16.365658732225424
10,1462359.638864261
671,0.0
708,3594788.292172672
2,1, 7,21, 0, 8,30.00,40.00,SummerDesignDay
8,16.44181049723187
10,1462359.638864261
671,0.0
708,3685179.8460971678
2,1, 7,21, 0, 8,40.00,50.00,SummerDesignDay
8,16.517756147764346
10,1462359.638864261
671,0.0
708,3778307.0414775658
2,1, 7,21, 0, 8,50.00,60.00,SummerDesignDay
8,16.593486849767513
10,1462359.638864261
671,0.0
708,3870942.021659447
2,1, 7,21, 0, 8, 0.00,60.00,SummerDesignDay
357,25.79365059526454
397,23.999999998109418
437,23.999999999456724
477,23.999999999999959
517,23.999999997920303
557,23.999999997523195
2,1, 7,21, 0, 9, 0.00,10.00,SummerDesignDay
8,16.677878063199516
10,4786172.030522507
671,0.0
708,6677852.521520724
2,1, 7,21, 0, 9,10.00,20.00,SummerDesignDay
8,16.76200946235728
10,4786172.030522507
671,0.0
708,7035739.800722509
2,1, 7,21, 0, 9,20.00,30.00,SummerDesignDay
8,16.845887031033866
10,4786172.030522507
671,0.0
708,7267385.327012197
2,1, 7,21, 0, 9,30.00,40.00,SummerDesignDay
8,16.929502190751337
10,4786172.030522507
671,0.0
708,7468048.553964377
2,1, 7,21, 0, 9,40.00,50.00,SummerDesignDay
8,17.012861351115086
10,4786172.030522507
671,0.0
708,7642879.31277837
2,1, 7,21, 0, 9,50.00,60.00,SummerDesignDay
8,17.09597057951627
10,4786172.030522507
671,0.0
708,7797453.014429811
2,1, 7,21, 0, 9, 0.00,60.00,SummerDesignDay
357,26.640292854659199
397,23.99999999999999
437,24.000000000000026
477,24.00000000000006
517,24.000000000000005
557,24.00000000000001
2,1, 7,21, 0,10, 0.00,10.00,SummerDesignDay
8,17.17011313897211
10,5384443.534337821
671,0.0
708,8517945.94769547
2,1, 7,21, 0,10,10.00,20.00,SummerDesignDay
8,17.24405314489198
10,5384443.534337821
671,0.0
708,8608959.941299335
2,1, 7,21, 0,10,20.00,30.00,SummerDesignDay
8,17.317792342150307
10,5384443.534337821
671,0.0
708,8642499.266364323
2,1, 7,21, 0,10,30.00,40.00,SummerDesignDay
8,17.391330750865035
10,5384443.534337821
671,0.0
708,8665034.348296352
2,1, 7,21, 0,10,40.00,50.00,SummerDesignDay
8,17.464669750704549
10,5384443.534337821
671,0.0
708,8677011.644635685
2,1, 7,21, 0,10,50.00,60.00,SummerDesignDay
8,17.537810589481837
10,5384443.534337821
671,0.0
708,8663582.775983328
2,1, 7,21, 0,10, 0.00,60.00,SummerDesignDay
357,27.500748862454839
397,24.000000000000047
437,24.0
477,24.00000000000003
517,24.00000000000003
557,24.000000000000015
2,1, 7,21, 0,11, 0.00,10.00,SummerDesignDay
8,17.60218312883583
10,5384443.534337821
671,0.0
708,8648070.900590556
2,1, 7,21, 0,11,10.00,20.00,SummerDesignDay
8,17.666401914182499
10,5384443.534337821
671,0.0
708,8638423.632689333
2,1, 7,21, 0,11,20.00,30.00,SummerDesignDay
8,17.73046886665172
10,5384443.534337821
671,0.0
708,8639007.995881379
2,1, 7,21, 0,11,30.00,40.00,SummerDesignDay
8,17.794377337180749
10,5384443.534337821
671,0.0
708,8652369.42557943
2,1, 7,21, 0,11,40.00,50.00,SummerDesignDay
8,17.858140091722729
10,5384443.534337821
671,0.0
708,8679281.109433946
2,1, 7,21, 0,11,50.00,60.00,SummerDesignDay
8,17.921751671476274
10,5384443.534337821
671,0.0
708,8720123.428785829
2,1, 7,21, 0,11, 0.00,60.00,SummerDesignDay
357,28.2322340780818
397,24.000000000000015
437,24.000000000000033
477,24.00000000000006
517,23.999999999999987
557,24.000000000000015
2,1, 7,21, 0,12, 0.00,10.00,SummerDesignDay
8,17.964074041059168
10,5384443.534337821
671,0.0
708,8762584.385793392
2,1, 7,21, 0,12,10.00,20.00,SummerDesignDay
8,18.00633512830953
10,5384443.534337821
671,0.0
708,8818429.952945522
2,1, 7,21, 0,12,20.00,30.00,SummerDesignDay
8,18.048524057857607
10,5384443.534337821
671,0.0
708,8891056.787500529
2,1, 7,21, 0,12,30.00,40.00,SummerDesignDay
8,18.090647246552004
10,5384443.534337821
671,0.0
708,8971078.047077276
2,1, 7,21, 0,12,40.00,50.00,SummerDesignDay
8,18.132703529720616
10,5384443.534337821
671,0.0
708,9050455.06351969
2,1, 7,21, 0,12,50.00,60.00,SummerDesignDay
8,18.17469964536842
10,5384443.534337821
671,0.0
708,9127952.007837164
2,1, 7,21, 0,12, 0.00,60.00,SummerDesignDay
357,28.785643779071184
397,24.00000000000003
437,24.0
477,24.00000000000006
517,24.000000000000033
557,24.000000000000033
2,1, 7,21, 0,13, 0.00,10.00,SummerDesignDay
8,18.208245339828517
10,5384443.534337821
671,0.0
708,8832724.804925913
2,1, 7,21, 0,13,10.00,20.00,SummerDesignDay
8,18.241744233723979
10,5384443.534337821
671,0.0
708,8848353.887312562
2,1, 7,21, 0,13,20.00,30.00,SummerDesignDay
8,18.2752069112248
10,5384443.534337821
671,0.0
708,8850944.670295844
2,1, 7,21, 0,13,30.00,40.00,SummerDesignDay
8,18.30862693969058
10,5384443.534337821
671,0.0
708,8856065.44976442
2,1, 7,21, 0,13,40.00,50.00,SummerDesignDay
8,18.342005526737105
10,5384443.534337821
671,0.0
708,8869340.683782518
2,1, 7,21, 0,13,50.00,60.00,SummerDesignDay
8,18.375341817792614
10,5384443.534337821
671,0.0
708,8888728.448063717
2,1, 7,21, 0,13, 0.00,60.00,SummerDesignDay
357,29.146342045485257
397,24.00000000000001
437,24.00000000000004
477,23.999999999999955
517,24.0
557,24.0
2,1, 7,21, 0,14, 0.00,10.00,SummerDesignDay
8,18.39615811087369
10,5384443.534337821
671,0.0
708,8902232.023981557
2,1, 7,21, 0,14,10.00,20.00,SummerDesignDay
8,18.416957955881725
10,5384443.534337821
671,0.0
708,8916454.714970947
2,1, 7,21, 0,14,20.00,30.00,SummerDesignDay
8,18.43773680274513
10,5384443.534337821
671,0.0
708,8943425.744122524
2,1, 7,21, 0,14,30.00,40.00,SummerDesignDay
8,18.458504433044504
10,5384443.534337821
671,0.0
708,8986891.48943239
2,1, 7,21, 0,14,40.00,50.00,SummerDesignDay
8,18.479250383250578
10,5384443.534337821
671,0.0
708,9043930.506758057
2,1, 7,21, 0,14,50.00,60.00,SummerDesignDay
8,18.499985692685468
10,5384443.534337821
671,0.0
708,9114646.166810999
2,1, 7,21, 0,14, 0.00,60.00,SummerDesignDay
357,29.3243914018761
397,24.0
437,24.000000000000026
477,24.000000000000047
517,24.00000000000003
557,24.0
2,1, 7,21, 0,15, 0.00,10.00,SummerDesignDay
8,18.499985692685468
10,5384443.534337821
671,0.0
708,9532867.70867971
2,1, 7,21, 0,15,10.00,20.00,SummerDesignDay
8,18.499985692685468
10,5384443.534337821
671,0.0
708,9671283.24356564
2,1, 7,21, 0,15,20.00,30.00,SummerDesignDay
8,18.499985692685468
10,5384443.534337821
671,0.0
708,9829559.887109176
2,1, 7,21, 0,15,30.00,40.00,SummerDesignDay
8,18.499985692685468
10,5384443.534337821
671,0.0
708,9983542.384923207
2,1, 7,21, 0,15,40.00,50.00,SummerDesignDay
8,18.499985692685468
10,5384443.534337821
671,0.0
708,10121716.866330183
2,1, 7,21, 0,15,50.00,60.00,SummerDesignDay
8,18.499985692685468
10,5384443.534337821
671,0.0
708,10244901.021510188
2,1, 7,21, 0,15, 0.00,60.00,SummerDesignDay
357,29.31164927239861
397,24.000000000000019
437,23.999999999999987
477,24.000000000000044
517,24.000000000000069
557,24.000000000000047
2,1, 7,21, 0,16, 0.00,10.00,SummerDesignDay
8,18.475102970177127
10,5384443.534337821
671,0.0
708,10340608.708753042
2,1, 7,21, 0,16,10.00,20.00,SummerDesignDay
8,18.450201543271235
10,5384443.534337821
671,0.0
708,10427505.521361296
2,1, 7,21, 0,16,20.00,30.00,SummerDesignDay
8,18.425271777286019
10,5384443.534337821
671,0.0
708,10487965.311503232
2,1, 7,21, 0,16,30.00,40.00,SummerDesignDay
8,18.40031825447926
10,5384443.534337821
671,0.0
708,10532561.586717612
2,1, 7,21, 0,16,40.00,50.00,SummerDesignDay
8,18.375341817792614
10,5384443.534337821
671,0.0
708,10567928.561925587
2,1, 7,21, 0,16,50.00,60.00,SummerDesignDay
8,18.350347174046595
10,5384443.534337821
671,0.0
708,10595448.294365813
2,1, 7,21, 0,16, 0.00,60.00,SummerDesignDay
357,29.093790713513717
397,24.00000000000007
437,24.00000000000004
477,23.999999999999998
517,24.000000000000015
557,24.00000000000004
2,1, 7,21, 0,17, 0.00,10.00,SummerDesignDay
8,18.316978860635527
10,5384443.534337821
671,0.0
708,10613578.080933886
2,1, 7,21, 0,17,10.00,20.00,SummerDesignDay
8,18.2835693630182
10,5384443.534337821
671,0.0
708,10627477.649730355
2,1, 7,21, 0,17,20.00,30.00,SummerDesignDay
8,18.250118050746214
10,5384443.534337821
671,0.0
708,10635801.55126095
2,1, 7,21, 0,17,30.00,40.00,SummerDesignDay
8,18.216624325548968
10,5384443.534337821
671,0.0
708,10640315.346811373
2,1, 7,21, 0,17,40.00,50.00,SummerDesignDay
8,18.183088861944893
10,5384443.534337821
671,0.0
708,10640730.981740106
2,1, 7,21, 0,17,50.00,60.00,SummerDesignDay
8,18.149510843493635
10,5384443.534337821
671,0.0
708,10635757.624780672
2,1, 7,21, 0,17, 0.00,60.00,SummerDesignDay
357,28.6785618054486
397,23.999999999999976
437,24.000000000000019
477,23.999999999999944
517,24.000000000000033
557,24.000000000000033
2,1, 7,21, 0,18, 0.00,10.00,SummerDesignDay
8,18.10748062898272
10,5016276.455066859
671,0.0
708,10274221.83390834
2,1, 7,21, 0,18,10.00,20.00,SummerDesignDay
8,18.065379091048376
10,5016276.455066859
671,0.0
708,10187741.839215652
2,1, 7,21, 0,18,20.00,30.00,SummerDesignDay
8,18.023216461654344
10,5016276.455066859
671,0.0
708,10093721.640028038
2,1, 7,21, 0,18,30.00,40.00,SummerDesignDay
8,17.980987605947548
10,5016276.455066859
671,0.0
708,10001732.001562655
2,1, 7,21, 0,18,40.00,50.00,SummerDesignDay
8,17.93869205826644
10,5016276.455066859
671,0.0
708,9925779.833281417
2,1, 7,21, 0,18,50.00,60.00,SummerDesignDay
8,17.89632405402092
10,5016276.455066859
671,0.0
708,9859852.31543611
2,1, 7,21, 0,18, 0.00,60.00,SummerDesignDay
357,28.085920962538695
397,24.000000000000044
437,24.000000000000005
477,24.0
517,24.000000000000033
557,24.000000000000005
2,1, 7,21, 0,19, 0.00,10.00,SummerDesignDay
8,17.832657261722244
10,2991357.519076566
671,0.0
708,8365361.125561419
2,1, 7,21, 0,19,10.00,20.00,SummerDesignDay
8,17.768833985856515
10,2991357.519076566
671,0.0
708,8140462.247898411
2,1, 7,21, 0,19,20.00,30.00,SummerDesignDay
8,17.704859478274899
10,2991357.519076566
671,0.0
708,7964047.3606634759
2,1, 7,21, 0,19,30.00,40.00,SummerDesignDay
8,17.640731707059819
10,2991357.519076566
671,0.0
708,7798912.601608293
2,1, 7,21, 0,19,40.00,50.00,SummerDesignDay
8,17.576451319157326
10,2991357.519076566
671,0.0
708,7645677.396487635
2,1, 7,21, 0,19,50.00,60.00,SummerDesignDay
8,17.512016904905339
10,2991357.519076566
671,0.0
708,7494874.324561203
2,1, 7,21, 0,19, 0.00,60.00,SummerDesignDay
357,27.339244215896526
397,24.00000000000001
437,24.000000000000005
477,24.00000000000003
517,24.000000000000044
557,24.00000000000003
2,1, 7,21, 0,20, 0.00,10.00,SummerDesignDay
8,17.464669750704549
10,1462359.638864261
671,0.0
708,6439314.999434541
2,1, 7,21, 0,20,10.00,20.00,SummerDesignDay
8,17.417239543286124
10,1462359.638864261
671,0.0
708,6180565.521052649
2,1, 7,21, 0,20,20.00,30.00,SummerDesignDay
8,17.369720602565694
10,1462359.638864261
671,0.0
708,5943960.793274093
2,1, 7,21, 0,20,30.00,40.00,SummerDesignDay
8,17.32212315858905
10,1462359.638864261
671,0.0
708,5690696.053838598
2,1, 7,21, 0,20,40.00,50.00,SummerDesignDay
8,17.27444149556641
10,1462359.638864261
671,0.0
708,5422677.721258798
2,1, 7,21, 0,20,50.00,60.00,SummerDesignDay
8,17.22667133087272
10,1462359.638864261
671,0.0
708,5152226.879230886
2,1, 7,21, 0,20, 0.00,60.00,SummerDesignDay
357,26.563292652339145
397,24.00000000000003
437,24.000000000000044
477,24.00000000000001
517,24.000000000000015
557,24.00000000000001
2,1, 7,21, 0,21, 0.00,10.00,SummerDesignDay
8,17.187526559563478
10,1462359.638864261
671,0.0
708,4881288.7462914199
2,1, 7,21, 0,21,10.00,20.00,SummerDesignDay
8,17.14832575016431
10,1462359.638864261
671,0.0
708,4687478.210378092
2,1, 7,21, 0,21,20.00,30.00,SummerDesignDay
8,17.109067882849585
10,1462359.638864261
671,0.0
708,4524825.462670151
2,1, 7,21, 0,21,30.00,40.00,SummerDesignDay
8,17.06975316359479
10,1462359.638864261
671,0.0
708,4384042.234867129
2,1, 7,21, 0,21,40.00,50.00,SummerDesignDay
8,17.030381184961106
10,1462359.638864261
671,0.0
708,4255266.54057055
2,1, 7,21, 0,21,50.00,60.00,SummerDesignDay
8,16.990952199245954
10,1462359.638864261
671,0.0
708,4134580.3854236828
2,1, 7,21, 0,21, 0.00,60.00,SummerDesignDay
357,25.901327042231544
397,24.000000000000026
437,23.99999999999999
477,24.000000000000019
517,24.000000000000015
557,24.00000000000003
2,1, 7,21, 0,22, 0.00,10.00,SummerDesignDay
8,16.951466381705289
10,717557.6374991046
671,0.0
708,0.0
2,1, 7,21, 0,22,10.00,20.00,SummerDesignDay
8,16.91191764298267
10,717557.6374991046
671,0.0
708,0.0
2,1, 7,21, 0,22,20.00,30.00,SummerDesignDay
8,16.872316270901277
10,717557.6374991046
671,0.0
708,0.0
2,1, 7,21, 0,22,30.00,40.00,SummerDesignDay
8,16.832657583970926
10,717557.6374991046
671,0.0
708,0.0
2,1, 7,21, 0,22,40.00,50.00,SummerDesignDay
8,16.792940913271754
10,717557.6374991046
671,0.0
708,0.0
2,1, 7,21, 0,22,50.00,60.00,SummerDesignDay
8,16.75316676384634
10,717557.6374991046
671,0.0
708,0.0
2,1, 7,21, 0,22, 0.00,60.00,SummerDesignDay
357,25.573089735766748
397,24.962596613506773
437,25.003446144727886
477,25.094664356911797
517,24.936601152585785
557,25.442609865769737
2,1, 7,21, 0,23, 0.00,10.00,SummerDesignDay
8,16.722189413934204
10,717557.6374991046
671,0.0
708,0.0
2,1, 7,21, 0,23,10.00,20.00,SummerDesignDay
8,16.691177401191405
10,717557.6374991046
671,0.0
708,0.0
2,1, 7,21, 0,23,20.00,30.00,SummerDesignDay
8,16.660129834097096
10,717557.6374991046
671,0.0
708,0.0
2,1, 7,21, 0,23,30.00,40.00,SummerDesignDay
8,16.62905234664031
10,717557.6374991046
671,0.0
708,0.0
2,1, 7,21, 0,23,40.00,50.00,SummerDesignDay
8,16.597934345516849
10,717557.6374991046
671,0.0
708,0.0
2,1, 7,21, 0,23,50.00,60.00,SummerDesignDay
8,16.566780836645607
10,717557.6374991046
671,0.0
708,0.0
2,1, 7,21, 0,23, 0.00,60.00,SummerDesignDay
357,25.31788421171234
397,25.322004738276786
437,25.29206293895226
477,25.405656457781999
517,25.202661205807023
557,25.84271399016546
2,1, 7,21, 0,24, 0.00,10.00,SummerDesignDay
8,16.53559150074222
10,588883.2432939032
671,0.0
708,0.0
2,1, 7,21, 0,24,10.00,20.00,SummerDesignDay
8,16.504366423325597
10,588883.2432939032
671,0.0
708,0.0
2,1, 7,21, 0,24,20.00,30.00,SummerDesignDay
8,16.473106420779854
10,588883.2432939032
671,0.0
708,0.0
2,1, 7,21, 0,24,30.00,40.00,SummerDesignDay
8,16.44181049723187
10,588883.2432939032
671,0.0
708,0.0
2,1, 7,21, 0,24,40.00,50.00,SummerDesignDay
8,16.410483695355663
10,588883.2432939032
671,0.0
708,0.0
2,1, 7,21, 0,24,50.00,60.00,SummerDesignDay
8,16.379116168301004
10,588883.2432939032
671,0.0
708,0.0
2,1, 7,21, 0,24, 0.00,60.00,SummerDesignDay
357,25.11761549256319
397,25.16729205383027
437,25.108228685533736
477,25.231650169833057
517,25.02431683540547
557,25.65162348004848
3,1, 7,21, 0,SummerDesignDay
358,49.04945638983194,41.5854558093554,14,60,56.07123596846627, 5,40
398,48.155759443935469,41.82657714952279,22,13,56.98151406665106, 7, 3
438,47.99361091606615,41.904927920599629,22,13,56.93219830446883, 7, 3
478,46.32409136593488,41.62422065592934,22,13,55.63285761408267, 5,30
518,48.13079643770457,42.05675649273507,22,10,56.970720137320068, 7, 3
558,47.15478141228383,40.522202318187648,22,13,56.96953261816255, 7, 3
4,1, 7
7,21.0245,17.5,21, 5,60,25.1,21,14,60
1,VANCOUVER INTL AP ANN HTG 99.6% CONDNS DB,  49.20,-123.18,  -8.00,   4.30
2,1,12,21, 0, 1, 0.00,10.00,WinterDesignDay
8,-6.1
10,588883.2432939032
671,4572771.275195737
708,0.0
2,1,12,21, 0, 1,10.00,20.00,WinterDesignDay
8,-6.1
10,588883.2432939032
671,4609039.236865393
708,0.0
2,1,12,21, 0, 1,20.00,30.00,WinterDesignDay
8,-6.1
10,588883.2432939032
671,4644608.763357747
708,0.0
2,1,12,21, 0, 1,30.00,40.00,WinterDesignDay
8,-6.1
10,588883.2432939032
671,4679542.288813002
708,0.0
2,1,12,21, 0, 1,40.00,50.00,WinterDesignDay
8,-6.1
10,588883.2432939032
671,4713860.070386709
708,0.0
2,1,12,21, 0, 1,50.00,60.00,WinterDesignDay
8,-6.1
10,588883.2432939032
671,4747584.924717927
708,0.0
2,1,12,21, 0, 1, 0.00,60.00,WinterDesignDay
357,14.336930443738856
397,18.000000000000005
437,17.999999999999984
477,18.0
517,17.999999999999998
557,17.999999999999998
2,1,12,21, 0, 2, 0.00,10.00,WinterDesignDay
8,-6.1
10,588883.2432939032
671,4780730.130651626
708,0.0
2,1,12,21, 0, 2,10.00,20.00,WinterDesignDay
8,-6.1
10,588883.2432939032
671,4813281.006183956
708,0.0
2,1,12,21, 0, 2,20.00,30.00,WinterDesignDay
8,-6.1
10,588883.2432939032
671,4845109.073811117
708,0.0
2,1,12,21, 0, 2,30.00,40.00,WinterDesignDay
8,-6.1
10,588883.2432939032
671,4876639.146255873
708,0.0
2,1,12,21, 0, 2,40.00,50.00,WinterDesignDay
8,-6.1
10,588883.2432939032
671,4908132.461835006
708,0.0
2,1,12,21, 0, 2,50.00,60.00,WinterDesignDay
8,-6.1
10,588883.2432939032
671,4939713.811276283
708,0.0
2,1,12,21, 0, 2, 0.00,60.00,WinterDesignDay
357,14.152343064818844
397,18.000000000000005
437,18.000000000000005
477,17.99999999999999
517,17.999999999999987
557,17.999999999999994
2,1,12,21, 0, 3, 0.00,10.00,WinterDesignDay
8,-6.1
10,588883.2432939032
671,4971112.636839866
708,0.0
2,1,12,21, 0, 3,10.00,20.00,WinterDesignDay
8,-6.1
10,588883.2432939032
671,5002297.901727771
708,0.0
2,1,12,21, 0, 3,20.00,30.00,WinterDesignDay
8,-6.1
10,588883.2432939032
671,5033235.614210743
708,0.0
2,1,12,21, 0, 3,30.00,40.00,WinterDesignDay
8,-6.1
10,588883.2432939032
671,5063894.98810769
708,0.0
2,1,12,21, 0, 3,40.00,50.00,WinterDesignDay
8,-6.1
10,588883.2432939032
671,5094244.073513827
708,0.0
2,1,12,21, 0, 3,50.00,60.00,WinterDesignDay
8,-6.1
10,588883.2432939032
671,5124243.064387744
708,0.0
2,1,12,21, 0, 3, 0.00,60.00,WinterDesignDay
357,13.976911189659172
397,18.000000000000005
437,17.99999999999999
477,17.99999999999999
517,18.000000000000005
557,18.0
2,1,12,21, 0, 4, 0.00,10.00,WinterDesignDay
8,-6.1
10,588883.2432939032
671,5153796.360414634
708,0.0
2,1,12,21, 0, 4,10.00,20.00,WinterDesignDay
8,-6.1
10,588883.2432939032
671,5182774.814486585
708,0.0
2,1,12,21, 0, 4,20.00,30.00,WinterDesignDay
8,-6.1
10,588883.2432939032
671,5212722.959954046
708,0.0
2,1,12,21, 0, 4,30.00,40.00,WinterDesignDay
8,-6.1
10,588883.2432939032
671,5242848.11513725
708,0.0
2,1,12,21, 0, 4,40.00,50.00,WinterDesignDay
8,-6.1
10,588883.2432939032
671,5272962.159310301
708,0.0
2,1,12,21, 0, 4,50.00,60.00,WinterDesignDay
8,-6.1
10,588883.2432939032
671,5303007.464674657
708,0.0
2,1,12,21, 0, 4, 0.00,60.00,WinterDesignDay
357,13.812741087181232
397,18.0
437,17.999999999999998
477,18.000000000000015
517,17.999999999999998
557,17.999999999999984
2,1,12,21, 0, 5, 0.00,10.00,WinterDesignDay
8,-6.1
10,588883.2432939032
671,5332936.5101426229
708,0.0
2,1,12,21, 0, 5,10.00,20.00,WinterDesignDay
8,-6.1
10,588883.2432939032
671,5362708.932498582
708,0.0
2,1,12,21, 0, 5,20.00,30.00,WinterDesignDay
8,-6.1
10,588883.2432939032
671,5392286.625833707
708,0.0
2,1,12,21, 0, 5,30.00,40.00,WinterDesignDay
8,-6.1
10,588883.2432939032
671,5421627.118377187
708,0.0
2,1,12,21, 0, 5,40.00,50.00,WinterDesignDay
8,-6.1
10,588883.2432939032
671,5450668.028327129
708,0.0
2,1,12,21, 0, 5,50.00,60.00,WinterDesignDay
8,-6.1
10,588883.2432939032
671,5479236.438027344
708,0.0
2,1,12,21, 0, 5, 0.00,60.00,WinterDesignDay
357,13.658864106158461
397,18.0
437,17.999999999999984
477,17.999999999999994
517,17.999999999999998
557,17.99999999999999
2,1,12,21, 0, 6, 0.00,10.00,WinterDesignDay
8,-6.1
10,588883.2432939032
671,5507380.019225305
708,0.0
2,1,12,21, 0, 6,10.00,20.00,WinterDesignDay
8,-6.1
10,588883.2432939032
671,5535720.784921628
708,0.0
2,1,12,21, 0, 6,20.00,30.00,WinterDesignDay
8,-6.1
10,588883.2432939032
671,5563941.555785904
708,0.0
2,1,12,21, 0, 6,30.00,40.00,WinterDesignDay
8,-6.1
10,588883.2432939032
671,5592026.881517396
708,0.0
2,1,12,21, 0, 6,40.00,50.00,WinterDesignDay
8,-6.1
10,588883.2432939032
671,5619957.039993509
708,0.0
2,1,12,21, 0, 6,50.00,60.00,WinterDesignDay
8,-6.1
10,588883.2432939032
671,5647716.366808329
708,0.0
2,1,12,21, 0, 6, 0.00,60.00,WinterDesignDay
357,13.514615015881632
397,18.0
437,18.00000000000001
477,18.000000000000005
517,17.999999999999994
557,18.00000000000001
2,1,12,21, 0, 7, 0.00,10.00,WinterDesignDay
8,-6.1
10,588883.2432939032
671,13025090.026781213
708,0.0
2,1,12,21, 0, 7,10.00,20.00,WinterDesignDay
8,-6.1
10,588883.2432939032
671,4573572.2423648959
708,0.0
2,1,12,21, 0, 7,20.00,30.00,WinterDesignDay
8,-6.1
10,588883.2432939032
671,11311015.580799653
708,0.0
2,1,12,21, 0, 7,30.00,40.00,WinterDesignDay
8,-6.1
10,588883.2432939032
671,9330085.386630945
708,0.0
2,1,12,21, 0, 7,40.00,50.00,WinterDesignDay
8,-6.1
10,588883.2432939032
671,9308595.961823209
708,0.0
2,1,12,21, 0, 7,50.00,60.00,WinterDesignDay
8,-6.1
10,588883.2432939032
671,9216619.397095396
708,0.0
2,1,12,21, 0, 7, 0.00,60.00,WinterDesignDay
357,13.3885942280016
397,20.043388562503524
437,20.020194833055496
477,20.01877156710954
517,20.02127103226854
557,20.018887473910096
2,1,12,21, 0, 8, 0.00,10.00,WinterDesignDay
8,-6.1
10,1462359.638864261
671,16948301.925535539
708,0.0
2,1,12,21, 0, 8,10.00,20.00,WinterDesignDay
8,-6.1
10,1462359.638864261
671,8759914.700113988
708,0.0
2,1,12,21, 0, 8,20.00,30.00,WinterDesignDay
8,-6.1
10,1462359.638864261
671,14435929.645863468
708,0.0
2,1,12,21, 0, 8,30.00,40.00,WinterDesignDay
8,-6.1
10,1462359.638864261
671,12646637.119149225
708,0.0
2,1,12,21, 0, 8,40.00,50.00,WinterDesignDay
8,-6.1
10,1462359.638864261
671,12444200.034613479
708,0.0
2,1,12,21, 0, 8,50.00,60.00,WinterDesignDay
8,-6.1
10,1462359.638864261
671,12252581.60925287
708,0.0
2,1,12,21, 0, 8, 0.00,60.00,WinterDesignDay
357,13.330846407850397
397,22.020249051784494
437,22.00724645094908
477,22.00660057992358
517,22.00756427735266
557,22.006637225828056
2,1,12,21, 0, 9, 0.00,10.00,WinterDesignDay
8,-6.1
10,4786172.030522507
671,10056203.954642363
708,0.0
2,1,12,21, 0, 9,10.00,20.00,WinterDesignDay
8,-6.1
10,4786172.030522507
671,9741904.24812954
708,0.0
2,1,12,21, 0, 9,20.00,30.00,WinterDesignDay
8,-6.1
10,4786172.030522507
671,9530300.92683256
708,0.0
2,1,12,21, 0, 9,30.00,40.00,WinterDesignDay
8,-6.1
10,4786172.030522507
671,9356575.750241831
708,0.0
2,1,12,21, 0, 9,40.00,50.00,WinterDesignDay
8,-6.1
10,4786172.030522507
671,9212571.10021115
708,0.0
2,1,12,21, 0, 9,50.00,60.00,WinterDesignDay
8,-6.1
10,4786172.030522507
671,9089279.382455225
708,0.0
2,1,12,21, 0, 9, 0.00,60.00,WinterDesignDay
357,13.39919487199996
397,21.999999999999987
437,22.00000000000004
477,21.999999999999998
517,22.0
557,22.00000000000003
2,1,12,21, 0,10, 0.00,10.00,WinterDesignDay
8,-6.1
10,5384443.534337821
671,8529884.82595179
708,0.0
2,1,12,21, 0,10,10.00,20.00,WinterDesignDay
8,-6.1
10,5384443.534337821
671,8400139.941846559
708,0.0
2,1,12,21, 0,10,20.00,30.00,WinterDesignDay
8,-6.1