Program Version,EnergyPlus, Version 8.9.0-eba93e8e1b, YMD=2018.09.18 17:35
1,5,Environment Title[],Latitude[deg],Longitude[deg],Time Zone[],Elevation[m]
2,8,Day of Simulation[],Month[],Day of Month[],DST Indicator[1=yes 0=no],Hour[],StartMinute[],EndMinute[],DayType
3,5,Cumulative Day of Simulation[],Month[],Day of Month[],DST Indicator[1=yes 0=no],DayType  ! When Daily Report Variables Requested
4,2,Cumulative Days of Simulation[],Month[]  ! When Monthly Report Variables Requested
5,1,Cumulative Days of Simulation[] ! When Run Period Report Variables Requested
6,1,Calendar Year of Simulation[] ! When Annual Report Variables Requested
7,9,Environment,Site Outdoor Air Drybulb Temperature [C] !Monthly [Value,Min,Day,Hour,Minute,Max,Day,Hour,Minute]
8,1,Environment,Site Outdoor Air Wetbulb Temperature [C] !TimeStep
2440,1,CORRIDORFLR1 ZN,Zone Air Temperature [C] !Hourly
2441,7,CORRIDORFLR1 ZN,Zone Air Relative Humidity [%] !Daily [Value,Min,Hour,Minute,Max,Hour,Minute]
2480,1,CORRIDORFLR2 ZN,Zone Air Temperature [C] !Hourly
2481,7,CORRIDORFLR2 ZN,Zone Air Relative Humidity [%] !Daily [Value,Min,Hour,Minute,Max,Hour,Minute]
2520,1,CORRIDORFLR3 ZN,Zone Air Temperature [C] !Hourly
2521,7,CORRIDORFLR3 ZN,Zone Air Relative Humidity [%] !Daily [Value,Min,Hour,Minute,Max,Hour,Minute]
2560,1,CORRIDORFLR4 ZN,Zone Air Temperature [C] !Hourly
2561,7,CORRIDORFLR4 ZN,Zone Air Relative Humidity [%] !Daily [Value,Min,Hour,Minute,Max,Hour,Minute]
2600,1,ELEVATORCOREFLR1 ZN,Zone Air Temperature [C] !Hourly
2601,7,ELEVATORCOREFLR1 ZN,Zone Air Relative Humidity [%] !Daily [Value,Min,Hour,Minute,Max,Hour,Minute]
2640,1,ELEVATORCOREFLR2 ZN,Zone Air Temperature [C] !Hourly
2641,7,ELEVATORCOREFLR2 ZN,Zone Air Relative Humidity [%] !Daily [Value,Min,Hour,Minute,Max,Hour,Minute]
2680,1,ELEVATORCOREFLR3 ZN,Zone Air Temperature [C] !Hourly
2681,7,ELEVATORCOREFLR3 ZN,Zone Air Relative Humidity [%] !Daily [Value,Min,Hour,Minute,Max,Hour,Minute]
2720,1,ELEVATORCOREFLR4 ZN,Zone Air Temperature [C] !Hourly
2721,7,ELEVATORCOREFLR4 ZN,Zone Air Relative Humidity [%] !Daily [Value,Min,Hour,Minute,Max,Hour,Minute]
2760,1,EMPLOYEELOUNGEFLR1 ZN,Zone Air Temperature [C] !Hourly
2761,7,EMPLOYEELOUNGEFLR1 ZN,Zone Air Relative Humidity [%] !Daily [Value,Min,Hour,Minute,Max,Hour,Minute]
2800,1,EXERCISECENTERFLR1 ZN,Zone Air Temperature [C] !Hourly
2801,7,EXERCISECENTERFLR1 ZN,Zone Air Relative Humidity [%] !Daily [Value,Min,Hour,Minute,Max,Hour,Minute]
2840,1,FRONTLOUNGEFLR1 ZN,Zone Air Temperature [C] !Hourly
2841,7,FRONTLOUNGEFLR1 ZN,Zone Air Relative Humidity [%] !Daily [Value,Min,Hour,Minute,Max,Hour,Minute]
2880,1,FRONTOFFICEFLR1 ZN,Zone Air Temperature [C] !Hourly
2881,7,FRONTOFFICEFLR1 ZN,Zone Air Relative Humidity [%] !Daily [Value,Min,Hour,Minute,Max,Hour,Minute]
2920,1,FRONTSTAIRSFLR1 ZN,Zone Air Temperature [C] !Hourly
2921,7,FRONTSTAIRSFLR1 ZN,Zone Air Relative Humidity [%] !Daily [Value,Min,Hour,Minute,Max,Hour,Minute]
2960,1,FRONTSTAIRSFLR2 ZN,Zone Air Temperature [C] !Hourly
2961,7,FRONTSTAIRSFLR2 ZN,Zone Air Relative Humidity [%] !Daily [Value,Min,Hour,Minute,Max,Hour,Minute]
3000,1,FRONTSTAIRSFLR3 ZN,Zone Air Temperature [C] !Hourly
3001,7,FRONTSTAIRSFLR3 ZN,Zone Air Relative Humidity [%] !Daily [Value,Min,Hour,Minute,Max,Hour,Minute]
3040,1,FRONTSTAIRSFLR4 ZN,Zone Air Temperature [C] !Hourly
3041,7,FRONTSTAIRSFLR4 ZN,Zone Air Relative Humidity [%] !Daily [Value,Min,Hour,Minute,Max,Hour,Minute]
3080,1,FRONTSTORAGEFLR1 ZN,Zone Air Temperature [C] !Hourly
3081,7,FRONTSTORAGEFLR1 ZN,Zone Air Relative Humidity [%] !Daily [Value,Min,Hour,Minute,Max,Hour,Minute]
3120,1,FRONTSTORAGEFLR2 ZN,Zone Air Temperature [C] !Hourly
3121,7,FRONTSTORAGEFLR2 ZN,Zone Air Relative Humidity [%] !Daily [Value,Min,Hour,Minute,Max,Hour,Minute]
3160,1,FRONTSTORAGEFLR3 ZN,Zone Air Temperature [C] !Hourly
3161,7,FRONTSTORAGEFLR3 ZN,Zone Air Relative Humidity [%] !Daily [Value,Min,Hour,Minute,Max,Hour,Minute]
3200,1,FRONTSTORAGEFLR4 ZN,Zone Air Temperature [C] !Hourly
3201,7,FRONTSTORAGEFLR4 ZN,Zone Air Relative Humidity [%] !Daily [Value,Min,Hour,Minute,Max,Hour,Minute]
3240,1,GUESTROOM101 ZN,Zone Air Temperature [C] !Hourly
3241,7,GUESTROOM101 ZN,Zone Air Relative Humidity [%] !Daily [Value,Min,Hour,Minute,Max,Hour,Minute]
3280,1,GUESTROOM102 ZN,Zone Air Temperature [C] !Hourly
3281,7,GUESTROOM102 ZN,Zone Air Relative Humidity [%] !Daily [Value,Min,Hour,Minute,Max,Hour,Minute]
3320,1,GUESTROOM103 ZN,Zone Air Temperature [C] !Hourly
3321,7,GUESTROOM103 ZN,Zone Air Relative Humidity [%] !Daily [Value,Min,Hour,Minute,Max,Hour,Minute]
3360,1,GUESTROOM104 ZN,Zone Air Temperature [C] !Hourly
3361,7,GUESTROOM104 ZN,Zone Air Relative Humidity [%] !Daily [Value,Min,Hour,Minute,Max,Hour,Minute]
3400,1,GUESTROOM105 ZN,Zone Air Temperature [C] !Hourly
3401,7,GUESTROOM105 ZN,Zone Air Relative Humidity [%] !Daily [Value,Min,Hour,Minute,Max,Hour,Minute]
3440,1,GUESTROOM201 ZN,Zone Air Temperature [C] !Hourly
3441,7,GUESTROOM201 ZN,Zone Air Relative Humidity [%] !Daily [Value,Min,Hour,Minute,Max,Hour,Minute]
3480,1,GUESTROOM202_205 ZN,Zone Air Temperature [C] !Hourly
3481,7,GUESTROOM202_205 ZN,Zone Air Relative Humidity [%] !Daily [Value,Min,Hour,Minute,Max,Hour,Minute]
3520,1,GUESTROOM206_208 ZN,Zone Air Temperature [C] !Hourly
3521,7,GUESTROOM206_208 ZN,Zone Air Relative Humidity [%] !Daily [Value,Min,Hour,Minute,Max,Hour,Minute]
3560,1,GUESTROOM209_212 ZN,Zone Air Temperature [C] !Hourly
3561,7,GUESTROOM209_212 ZN,Zone Air Relative Humidity [%] !Daily [Value,Min,Hour,Minute,Max,Hour,Minute]
3600,1,GUESTROOM213 ZN,Zone Air Temperature [C] !Hourly
3601,7,GUESTROOM213 ZN,Zone Air Relative Humidity [%] !Daily [Value,Min,Hour,Minute,Max,Hour,Minute]
3640,1,GUESTROOM214 ZN,Zone Air Temperature [C] !Hourly
3641,7,GUESTROOM214 ZN,Zone Air Relative Humidity [%] !Daily [Value,Min,Hour,Minute,Max,Hour,Minute]
3680,1,GUESTROOM215_218 ZN,Zone Air Temperature [C] !Hourly
3681,7,GUESTROOM215_218 ZN,Zone Air Relative Humidity [%] !Daily [Value,Min,Hour,Minute,Max,Hour,Minute]
3720,1,GUESTROOM219 ZN,Zone Air Temperature [C] !Hourly
3721,7,GUESTROOM219 ZN,Zone Air Relative Humidity [%] !Daily [Value,Min,Hour,Minute,Max,Hour,Minute]
3760,1,GUESTROOM220_223 ZN,Zone Air Temperature [C] !Hourly
3761,7,GUESTROOM220_223 ZN,Zone Air Relative Humidity [%] !Daily [Value,Min,Hour,Minute,Max,Hour,Minute]
3800,1,GUESTROOM224 ZN,Zone Air Temperature [C] !Hourly
3801,7,GUESTROOM224 ZN,Zone Air Relative Humidity [%] !Daily [Value,Min,Hour,Minute,Max,Hour,Minute]
3840,1,GUESTROOM301 ZN,Zone Air Temperature [C] !Hourly
3841,7,GUESTROOM301 ZN,Zone Air Relative Humidity [%] !Daily [Value,Min,Hour,Minute,Max,Hour,Minute]
3880,1,GUESTROOM302_305 ZN,Zone Air Temperature [C] !Hourly
3881,7,GUESTROOM302_305 ZN,Zone Air Relative Humidity [%] !Daily [Value,Min,Hour,Minute,Max,Hour,Minute]
3920,1,GUESTROOM306_308 ZN,Zone Air Temperature [C] !Hourly
3921,7,GUESTROOM306_308 ZN,Zone Air Relative Humidity [%] !Daily [Value,Min,Hour,Minute,Max,Hour,Minute]
3960,1,GUESTROOM309_312 ZN,Zone Air Temperature [C] !Hourly
3961,7,GUESTROOM309_312 ZN,Zone Air Relative Humidity [%] !Daily [Value,Min,Hour,Minute,Max,Hour,Minute]
4000,1,GUESTROOM313 ZN,Zone Air Temperature [C] !Hourly
4001,7,GUESTROOM313 ZN,Zone Air Relative Humidity [%] !Daily [Value,Min,Hour,Minute,Max,Hour,Minute]
4040,1,GUESTROOM314 ZN,Zone Air Temperature [C] !Hourly
4041,7,GUESTROOM314 ZN,Zone Air Relative Humidity [%] !Daily [Value,Min,Hour,Minute,Max,Hour,Minute]
4080,1,GUESTROOM315_318 ZN,Zone Air Temperature [C] !Hourly
4081,7,GUESTROOM315_318 ZN,Zone Air Relative Humidity [%] !Daily [Value,Min,Hour,Minute,Max,Hour,Minute]
4120,1,GUESTROOM319 ZN,Zone Air Temperature [C] !Hourly
4121,7,GUESTROOM319 ZN,Zone Air Relative Humidity [%] !Daily [Value,Min,Hour,Minute,Max,Hour,Minute]
4160,1,GUESTROOM320_323 ZN,Zone Air Temperature [C] !Hourly
4161,7,GUESTROOM320_323 ZN,Zone Air Relative Humidity [%] !Daily [Value,Min,Hour,Minute,Max,Hour,Minute]
4200,1,GUESTROOM324 ZN,Zone Air Temperature [C] !Hourly
4201,7,GUESTROOM324 ZN,Zone Air Relative Humidity [%] !Daily [Value,Min,Hour,Minute,Max,Hour,Minute]
4240,1,GUESTROOM401 ZN,Zone Air Temperature [C] !Hourly
4241,7,GUESTROOM401 ZN,Zone Air Relative Humidity [%] !Daily [Value,Min,Hour,Minute,Max,Hour,Minute]
4280,1,GUESTROOM402_405 ZN,Zone Air Temperature [C] !Hourly
4281,7,GUESTROOM402_405 ZN,Zone Air Relative Humidity [%] !Daily [Value,Min,Hour,Minute,Max,Hour,Minute]
4320,1,GUESTROOM406_408 ZN,Zone Air Temperature [C] !Hourly
4321,7,GUESTROOM406_408 ZN,Zone Air Relative Humidity [%] !Daily [Value,Min,Hour,Minute,Max,Hour,Minute]
4360,1,GUESTROOM409_412 ZN,Zone Air Temperature [C] !Hourly
4361,7,GUESTROOM409_412 ZN,Zone Air Relative Humidity [%] !Daily [Value,Min,Hour,Minute,Max,Hour,Minute]
4400,1,GUESTROOM413 ZN,Zone Air Temperature [C] !Hourly
4401,7,GUESTROOM413 ZN,Zone Air Relative Humidity [%] !Daily [Value,Min,Hour,Minute,Max,Hour,Minute]
4440,1,GUESTROOM414 ZN,Zone Air Temperature [C] !Hourly
4441,7,GUESTROOM414 ZN,Zone Air Relative Humidity [%] !Daily [Value,Min,Hour,Minute,Max,Hour,Minute]
4480,1,GUESTROOM415_418 ZN,Zone Air Temperature [C] !Hourly
4481,7,GUESTROOM415_418 ZN,Zone Air Relative Humidity [%] !Daily [Value,Min,Hour,Minute,Max,Hour,Minute]
4520,1,GUESTROOM419 ZN,Zone Air Temperature [C] !Hourly
4521,7,GUESTROOM419 ZN,Zone Air Relative Humidity [%] !Daily [Value,Min,Hour,Minute,Max,Hour,Minute]
4560,1,GUESTROOM420_423 ZN,Zone Air Temperature [C] !Hourly
4561,7,GUESTROOM420_423 ZN,Zone Air Relative Humidity [%] !Daily [Value,Min,Hour,Minute,Max,Hour,Minute]
4600,1,GUESTROOM424 ZN,Zone Air Temperature [C] !Hourly
4601,7,GUESTROOM424 ZN,Zone Air Relative Humidity [%] !Daily [Value,Min,Hour,Minute,Max,Hour,Minute]
4640,1,LAUNDRYROOMFLR1 ZN,Zone Air Temperature [C] !Hourly
4641,7,LAUNDRYROOMFLR1 ZN,Zone Air Relative Humidity [%] !Daily [Value,Min,Hour,Minute,Max,Hour,Minute]
4680,1,MECHANICALROOMFLR1 ZN,Zone Air Temperature [C] !Hourly
4681,7,MECHANICALROOMFLR1 ZN,Zone Air Relative Humidity [%] !Daily [Value,Min,Hour,Minute,Max,Hour,Minute]
4720,1,MEETINGROOMFLR1 ZN,Zone Air Temperature [C] !Hourly
4721,7,MEETINGROOMFLR1 ZN,Zone Air Relative Humidity [%] !Daily [Value,Min,Hour,Minute,Max,Hour,Minute]
4760,1,REARSTAIRSFLR1 ZN,Zone Air Temperature [C] !Hourly
4761,7,REARSTAIRSFLR1 ZN,Zone Air Relative Humidity [%] !Daily [Value,Min,Hour,Minute,Max,Hour,Minute]
4800,1,REARSTAIRSFLR2 ZN,Zone Air Temperature [C] !Hourly
4801,7,REARSTAIRSFLR2 ZN,Zone Air Relative Humidity [%] !Daily [Value,Min,Hour,Minute,Max,Hour,Minute]
4840,1,REARSTAIRSFLR3 ZN,Zone Air Temperature [C] !Hourly
4841,7,REARSTAIRSFLR3 ZN,Zone Air Relative Humidity [%] !Daily [Value,Min,Hour,Minute,Max,Hour,Minute]
4880,1,REARSTAIRSFLR4 ZN,Zone Air Temperature [C] !Hourly
4881,7,REARSTAIRSFLR4 ZN,Zone Air Relative Humidity [%] !Daily [Value,Min,Hour,Minute,Max,Hour,Minute]
4920,1,REARSTORAGEFLR1 ZN,Zone Air Temperature [C] !Hourly
4921,7,REARSTORAGEFLR1 ZN,Zone Air Relative Humidity [%] !Daily [Value,Min,Hour,Minute,Max,Hour,Minute]
4960,1,REARSTORAGEFLR2 ZN,Zone Air Temperature [C] !Hourly
4961,7,REARSTORAGEFLR2 ZN,Zone Air Relative Humidity [%] !Daily [Value,Min,Hour,Minute,Max,Hour,Minute]
5000,1,REARSTORAGEFLR3 ZN,Zone Air Temperature [C] !Hourly
5001,7,REARSTORAGEFLR3 ZN,Zone Air Relative Humidity [%] !Daily [Value,Min,Hour,Minute,Max,Hour,Minute]
5040,1,REARSTORAGEFLR4 ZN,Zone Air Temperature [C] !Hourly
5041,7,REARSTORAGEFLR4 ZN,Zone Air Relative Humidity [%] !Daily [Value,Min,Hour,Minute,Max,Hour,Minute]
5080,1,RESTROOMFLR1 ZN,Zone Air Temperature [C] !Hourly
5081,7,RESTROOMFLR1 ZN,Zone Air Relative Humidity [%] !Daily [Value,Min,Hour,Minute,Max,Hour,Minute]
10,1,Electricity:Facility [J] !TimeStep
5231,1,DistrictCooling:Facility [J] !TimeStep
5194,1,DistrictHeating:Facility [J] !TimeStep
End of Data Dictionary
1,VANCOUVER INTL AP ANN CLG .4% CONDNS DB=>MWB,  49.20,-123.18,  -8.00,   4.30
2,1, 7,21, 0, 1, 0.00,15.00,SummerDesignDay
8,16.33873475708489
10,7620724.931586061
5194,0.0
5231,4844176.193109199
2,1, 7,21, 0, 1,15.00,30.00,SummerDesignDay
8,16.2982938306074
10,7620724.931586061
5194,0.0
5231,4260952.673257786
2,1, 7,21, 0, 1,30.00,45.00,SummerDesignDay
8,16.257788233391236
10,7620724.931586061
5194,0.0
5231,3773974.3401720265
2,1, 7,21, 0, 1,45.00,60.00,SummerDesignDay
8,16.217228272321866
10,7620724.931586061
5194,0.0
5231,3334788.1476722497
2,1, 7,21, 0, 1, 0.00,60.00,SummerDesignDay
2440,24.000000000000008
2480,24.0
2520,24.00000000000002
2560,23.787960796007505
2600,21.98767124352412
2640,21.965226115735644
2680,21.977388977247708
2720,21.534589400582268
2760,24.000000000000008
2800,22.332412177054495
2840,24.0
2880,24.147383099752735
2920,24.000000000000005
2960,24.000000000000019
3000,24.000000000000008
3040,23.870570125440709
3080,24.000000000000015
3120,23.99999999999999
3160,24.000000000000008
3200,23.905869277302345
3240,23.857932074575943
3280,23.868765484786516
3320,23.880931524749859
3360,23.998350480526474
3400,24.00000000000002
3440,24.000000000000019
3480,24.000000000000015
3520,23.991771218359795
3560,23.948118285898464
3600,23.996596126322915
3640,24.0
3680,24.000000000000019
3720,24.000000000000005
3760,23.999999999999987
3800,24.000000000000005
3840,24.000000000000008
3880,23.999999999999994
3920,23.999338006972104
3960,23.992159635906334
4000,23.99999999999999
4040,24.0
4080,24.00000000000002
4120,24.000000000000015
4160,24.000000000000019
4200,24.000000000000019
4240,23.644452712759244
4280,23.408335268461636
4320,23.38520466922556
4360,23.367942665283178
4400,23.554699208526267
4440,23.717550625803786
4480,23.560736871584785
4520,23.46517201825448
4560,23.569958069063845
4600,23.677516958455859
4640,23.948034117371173
4680,23.90656564882523
4720,23.813209089045445
4760,24.000000000000005
4800,24.0
4840,23.999999999999994
4880,23.941278395147223
4920,24.00000000000001
4960,24.0
5000,24.000000000000008
5040,23.798655745399029
5080,24.0
2,1, 7,21, 0, 2, 0.00,15.00,SummerDesignDay
8,16.190158796084039
10,5727457.176562212
5194,49707.333817212406
5231,2467984.6616317357
2,1, 7,21, 0, 2,15.00,30.00,SummerDesignDay
8,16.163056857826836
10,5727457.176562212
5194,102622.77425236628
5231,2145482.883281998
2,1, 7,21, 0, 2,30.00,45.00,SummerDesignDay
8,16.135928228205914
10,5727457.176562212
5194,109360.55970998347
5231,1856902.0619522292
2,1, 7,21, 0, 2,45.00,60.00,SummerDesignDay
8,16.108773026303486
10,5727457.176562212
5194,134127.3901942534
5231,1597629.234745465
2,1, 7,21, 0, 2, 0.00,60.00,SummerDesignDay
2440,23.998786094953585
2480,24.000000000000019
2520,24.000000000000015
2560,23.506783161734068
2600,21.778355082464488
2640,21.761763373606166
2680,21.76615885908147
2720,21.240835815707567
2760,23.771925446152907
2800,22.01910701589913
2840,24.0
2880,24.003593829117859
2920,23.99293808600035
2960,23.999999999999994
3000,24.000000000000015
3040,23.65020598928904
3080,24.000000000000015
3120,24.000000000000015
3160,24.000000000000015
3200,23.70718521567854
3240,23.691930563519457
3280,23.703357559381766
3320,23.72438996680046
3360,23.91106833281971
3400,23.952601799108384
3440,24.0
3480,24.0
3520,23.87356812916518
3560,23.801838577750606
3600,23.900618159969836
3640,24.0
3680,23.999246817200758
3720,23.942796272199247
3760,23.999999999999994
3800,24.000000000000008
3840,24.0
3880,23.948065255603937
3920,23.903894994879498
3960,23.865462432046394
4000,23.936060950842408
4040,24.000000000000015
4080,24.000000000000015
4120,23.939682023656418
4160,24.000000000000008
4200,24.000000000000008
4240,23.3309457864015
4280,23.066591947690286
4320,23.0385300071858
4360,23.024798013981603
4400,23.259409538196665
4440,23.436662694972318
4480,23.221939917086535
4520,23.141681384624957
4560,23.23579640480473
4600,23.395117320010486
4640,23.795818522976114
4680,23.775645163595045
4720,23.6499753017167
4760,24.00000000000001
4800,24.000000000000015
4840,24.000000000000015
4880,23.72932408061842
4920,23.989907531690123
4960,24.0
5000,24.00000000000001
5040,23.548606586637889
5080,24.000000000000015
2,1, 7,21, 0, 3, 0.00,15.00,SummerDesignDay
8,16.08839292740015
10,5519597.325261097
5194,0.0
5231,1411745.7087189255
2,1, 7,21, 0, 3,15.00,30.00,SummerDesignDay
8,16.067992103020477
10,5519597.325261097
5194,0.0
5231,1254804.3745970673
2,1, 7,21, 0, 3,30.00,45.00,SummerDesignDay
8,16.047582277444918
10,5519597.325261097
5194,0.0
5231,1114416.8053595375
2,1, 7,21, 0, 3,45.00,60.00,SummerDesignDay
8,16.027151463515208
10,5519597.325261097
5194,0.0
5231,994486.2834078572
2,1, 7,21, 0, 3, 0.00,60.00,SummerDesignDay
2440,23.950375495832345
2480,24.000000000000008
2520,24.000000000000005
2560,23.284632811856829
2600,21.611827190741879
2640,21.602139195672757
2680,21.597706864231627
2720,20.99093873562459
2760,23.35099443952753
2800,21.36022496002804
2840,24.00000000000002
2880,23.88760140593671
2920,23.93855765523176
2960,24.000000000000005
3000,24.0
3040,23.463261646970787
3080,24.000000000000008
3120,24.000000000000019
3160,24.000000000000019
3200,23.525171037029027
3240,23.588621453458143
3280,23.59869143202551
3320,23.627520542397439
3360,23.822122561850106
3400,23.85090899092738
3440,24.0
3480,24.0
3520,23.783165843778805
3560,23.711648180027717
3600,23.821882771657806
3640,23.99555410785238
3680,23.956724216287197
3720,23.850521783684927
3760,23.999128417627099
3800,24.0
3840,23.963616477132143
3880,23.85299312536419
3920,23.79521897720631
3960,23.757629843844506
4000,23.849720155970727
4040,23.997939588019649
4080,23.96547859726529
4120,23.83407128198624
4160,23.981627140729374
4200,23.99397500117508
4240,23.10011029014677
4280,22.851085559180477
4320,22.81723208206484
4360,22.80917510316062
4400,23.046514647136897
4440,23.22884514111444
4480,23.003594850067253
4520,22.909759693970398
4560,23.02009174480313
4600,23.188506354930497
4640,23.681145970745935
4680,23.688624708852456
4720,23.554935301586597
4760,24.000000000000005
4800,24.00000000000001
4840,24.000000000000005
4880,23.534306158019377
4920,23.92312148046237
4960,23.99796350653215
5000,23.995431642698205
5040,23.3383987558881
5080,24.00000000000002
2,1, 7,21, 0, 4, 0.00,15.00,SummerDesignDay
8,16.00671078357666
10,3834189.421538362
5194,0.0
5231,767515.2802074968
2,1, 7,21, 0, 4,15.00,30.00,SummerDesignDay
8,15.986249958378048
10,3834189.421538362
5194,0.0
5231,668891.6947785016
2,1, 7,21, 0, 4,30.00,45.00,SummerDesignDay
8,15.965779036468147
10,3834189.421538362
5194,0.0
5231,579061.9057667316
2,1, 7,21, 0, 4,45.00,60.00,SummerDesignDay
8,15.945287702730492
10,3834189.421538362
5194,0.0
5231,490670.7755675073
2,1, 7,21, 0, 4, 0.00,60.00,SummerDesignDay
2440,23.831493443410975
2480,24.000000000000005
2520,23.999999999999994
2560,23.039272152723585
2600,21.453340768767899
2640,21.451592323329096
2680,21.436553185406276
2720,20.757160598927997
2760,23.123408374027343
2800,21.081259876656849
2840,24.000000000000033
2880,23.75529891473129
2920,23.83826441804435
2960,23.992971603159739
3000,23.982336700152066
3040,23.241015868976335
3080,23.97927850594685
3120,24.000000000000008
3160,24.0
3200,23.314843092493459
3240,23.456337425159825
3280,23.4651119504948
3320,23.500228405029124
3360,23.698142970160104
3400,23.69547929309092
3440,24.0
3480,23.93704506678717
3520,23.654609592427275
3560,23.582278388283269
3600,23.71088540013365
3640,23.907684763360288
3680,23.82977053939357
3720,23.717409456359016
3760,23.90863556863489
3800,23.97813522326984
3840,23.836388703669205
3880,23.705785201918859
3920,23.64112898310854
3960,23.605272538355899
4000,23.723505803432525
4040,23.907553420619157
4080,23.824791573702194
4120,23.68331920445633
4160,23.849841617801429
4200,23.894291161838127
4240,22.844702240373715
4280,22.600122557529227
4320,22.562630266879805
4360,22.557858451399598
4400,22.80474744087111
4440,22.98882680848651
4480,22.748163453638573
4520,22.64865153880119
4560,22.766716953084698
4600,22.950794500695907
4640,23.525616807600586
4680,23.57749946060398
4720,23.431582613323838
4760,23.98102313690841
4800,24.0
4840,24.00000000000001
4880,23.301668035465437
4920,23.81093065683487
4960,23.928781186064215
5000,23.91336804026185
5040,23.101591779416976
5080,24.0
2,1, 7,21, 0, 5, 0.00,15.00,SummerDesignDay
8,15.931621799160979
10,3834189.421538362
5194,0.0
5231,417596.95310755187
2,1, 7,21, 0, 5,15.00,30.00,SummerDesignDay
8,15.917943710706878
10,3834189.421538362
5194,0.0
5231,360946.0706262688
2,1, 7,21, 0, 5,30.00,45.00,SummerDesignDay
8,15.904264620136548
10,3834189.421538362
5194,0.0
5231,457695.54575541158
2,1, 7,21, 0, 5,45.00,60.00,SummerDesignDay
8,15.89058503181825
10,3834189.421538362
5194,0.0
5231,607359.9283830111
2,1, 7,21, 0, 5, 0.00,60.00,SummerDesignDay
2440,23.76509920049417
2480,23.999999999999998
2520,23.991067974000726
2560,22.855586177795499
2600,21.31233918741532
2640,21.318204166184456
2680,21.29133852296294
2720,20.55395799673486
2760,22.9781037373884
2800,20.896464040613183
2840,23.999999999999966
2880,23.64514648632998
2920,23.75180692451807
2960,23.943398247332284
3000,23.914861740920789
3040,23.05190099339907
3080,23.907559923773634
3120,23.999999999999998
3160,23.998487529006789
3200,23.132043764313818
3240,23.377456634618946
3280,23.38527595448968
3320,23.42349769721609
3360,23.603390491319116
3400,23.5792229437076
3440,23.99169440798259
3480,23.880977951062837
3520,23.589226480288255
3560,23.51152874267051
3600,23.648117424315399
3640,23.83087654999567
3680,23.733479194778977
3720,23.617854837006406
3760,23.809167900480668
3800,23.907355154311604
3840,23.74598124129728
3880,23.615455842771988
3920,23.549481995543418
3960,23.51093756216196
4000,23.643154556827967
4040,23.815234770951667
4080,23.71043102629415
4120,23.564936719822208
4160,23.73863734039877
4200,23.80217750358365
4240,22.67548120894397
4280,22.454611425133888
4320,22.422029272027367
4360,22.41183229028092
4400,22.645767205938037
4440,22.804242965496309
4480,22.56465611957029
4520,22.451398132543905
4560,22.584950098552313
4600,22.769558086001415
4640,23.407884317296089
4680,23.49062024444902
4720,23.36450504303245
4760,23.90455416117077
4800,24.000000000000008
4840,23.988778390504593
4880,23.10254402729322
4920,23.7114052304933
4960,23.855010373645734
5000,23.824114299508105
5040,22.903267793232435
5080,24.00000000000001
2,1, 7,21, 0, 6, 0.00,15.00,SummerDesignDay
8,15.904264620136548
10,3834189.421538362
5194,0.0
5231,761935.8752448018
2,1, 7,21, 0, 6,15.00,30.00,SummerDesignDay
8,15.917943710706878
10,3834189.421538362
5194,0.0
5231,878169.4133584345
2,1, 7,21, 0, 6,30.00,45.00,SummerDesignDay
8,15.931621799160979
10,3834189.421538362
5194,0.0
5231,962918.3702299331
2,1, 7,21, 0, 6,45.00,60.00,SummerDesignDay
8,15.945287702730492
10,3834189.421538362
5194,0.0
5231,987231.8962477766
2,1, 7,21, 0, 6, 0.00,60.00,SummerDesignDay
2440,23.96249536105351
2480,24.000000000000008
2520,23.999602274142878
2560,22.936970500019556
2600,21.272545492230777
2640,21.26637682092177
2680,21.227100614825845
2720,20.496924245162896
2760,22.916620577772677
2800,20.847863386681828
2840,24.000000000000005
2880,23.601587030243925
2920,23.693315963989215
2960,23.902114017160075
3000,23.858729243669683
3040,22.966295974401164
3080,23.855456091744164
3120,24.000000000000008
3160,23.972918006085135
3200,23.04030828243975
3240,23.45082171060926
3280,23.46704130194998
3320,23.49662287073035
3360,23.570315532448075
3400,23.534001112062066
3440,23.99998990794071
3480,23.960799915775099
3520,23.68098606041289
3560,23.57538017908335
3600,23.701340162858004
3640,23.805359442830786
3680,23.696485589917147
3720,23.57203569026906
3760,23.768872131750507
3800,23.87921092606149
3840,23.78119284804261
3880,23.663697072973898
3920,23.618904597026139
3960,23.554820393598967
4000,23.67929904003257
4040,23.77248839583432
4080,23.657007014670044
4120,23.49980980447318
4160,23.688469247540405
4200,23.76031947134862
4240,22.81492921969706
4280,22.696297393409158
4320,22.709863655478629
4360,22.652275645552156
4400,22.771246874846228
4440,22.788209596726479
4480,22.607019355169166
4520,22.425459472371537
4560,22.629974975234306
4600,22.755856160400428
4640,23.366014804512699
4680,23.466670674709765
4720,23.50833963080899
4760,23.845620634188326
4800,23.98889767605944
4840,23.940964434257997
4880,23.016896062612564
4920,23.658077028931385
4960,23.814818909136155
5000,23.766914620564696
5040,22.838851664051665
5080,24.0
2,1, 7,21, 0, 7, 0.00,15.00,SummerDesignDay
8,15.99307018817807
10,5519597.325261097
5194,0.0
5231,1136229.236834612
2,1, 7,21, 0, 7,15.00,30.00,SummerDesignDay
8,16.040775235496488
10,5519597.325261097
5194,0.0
5231,1241510.7201214685
2,1, 7,21, 0, 7,30.00,45.00,SummerDesignDay
8,16.08839292740015
10,5519597.325261097
5194,0.0
5231,1336718.0084028007
2,1, 7,21, 0, 7,45.00,60.00,SummerDesignDay
8,16.135928228205914
10,5519597.325261097
5194,0.0
5231,1451432.7711486079
2,1, 7,21, 0, 7, 0.00,60.00,SummerDesignDay
2440,23.978423876004866
2480,24.0
2520,23.999999999586615
2560,23.3034009913979
2600,21.375869546809235
2640,21.35663564055977
2680,21.305951077057956
2720,20.695252569991088
2760,22.951392532474917
2800,20.977282293094875
2840,23.999999999999998
2880,23.63410281956263
2920,23.70491641111987
2960,23.925090766212088
3000,23.867659985351716
3040,23.086994704835229
3080,23.865371615912019
3120,23.999999999999994
3160,23.984782404617236
3200,23.14411005423641
3240,23.51341128658804
3280,23.538661376930823
3320,23.55598609191898
3360,23.64205267656672
3400,23.60095692488585
3440,23.999999999904504
3480,23.998095151884223
3520,23.740862379875325
3560,23.635444179648677
3600,23.75894974036374
3640,23.878249612734437
3680,23.772920685938165
3720,23.630223287537324
3760,23.84231109899692
3800,23.947828493893213
3840,23.82587499658552
3880,23.716323518427424
3920,23.667062812022434
3960,23.60432132517854
4000,23.721807666289913
4040,23.829917097941939
4080,23.722878795430746
4120,23.541566258422646
4160,23.757827917317436
4200,23.819200833703336
4240,23.09239752251495
4280,23.04813231177518
4320,23.062257282842177
4360,23.002151296845676
4400,23.025909658714015
4440,23.049175535691974
4480,22.979241686151079
4520,22.68179046130642
4560,23.007541505250488
4600,23.01592331061988
4640,23.431593716552965
4680,23.529945942819599
4720,23.56377133848848
4760,23.858763507572747
4800,23.99899318820138
4840,23.952335719838524
4880,23.157252355649914
4920,23.684514220002784
4960,23.845461796959989
5000,23.782127442949656
5040,23.00599647102521
5080,24.00000000000001
2,1, 7,21, 0, 8, 0.00,15.00,SummerDesignDay
8,16.251033100214916
10,9195832.947873649
5194,0.0
5231,1896674.56270957
2,1, 7,21, 0, 8,15.00,30.00,SummerDesignDay
8,16.365658732225424
10,9195832.947873649
5194,0.0
5231,2223427.7870639276
2,1, 7,21, 0, 8,30.00,45.00,SummerDesignDay
8,16.479818502163963
10,9195832.947873649
5194,0.0
5231,3026626.474450608
2,1, 7,21, 0, 8,45.00,60.00,SummerDesignDay
8,16.593486849767513
10,9195832.947873649
5194,0.0
5231,3851644.8564301885
2,1, 7,21, 0, 8, 0.00,60.00,SummerDesignDay
2440,23.98962505017906
2480,24.000000000000008
2520,24.000000000000008
2560,23.83780356608233
2600,21.682889998456397
2640,21.684460822719325
2680,21.62583895856033
2720,21.241192234441443
2760,23.110797285801135
2800,21.37599087595885
2840,23.99999999999997
2880,23.947820177883665
2920,23.816027140999876
2960,23.995886779704109
3000,23.972416156606067
3040,23.454499475277893
3080,23.95648486462656
3120,23.999999999999998
3160,23.99994956193058
3200,23.478701278139704
3240,23.655547959719408
3280,23.681673787885776
3320,23.69451596610287
3360,23.811230491467297
3400,23.768307728598889
3440,24.0
3480,23.999999970108463
3520,23.917390327355624
3560,23.816301321260654
3600,23.916392443132627
3640,23.99005885339761
3680,23.947834936837837
3720,23.797441460511739
3760,23.98185380593553
3800,23.9997344411761
3840,23.96222772873666
3880,23.898595386396058
3920,23.848259736608165
3960,23.7845311315251
4000,23.871078197532904
4040,23.968127651898116
4080,23.9102846139008
4120,23.699547411423276
4160,23.938700720370105
4200,23.962993620653856
4240,23.58917143540999
4280,23.624515012727625
4320,23.635149096907754
4360,23.57621576414274
4400,23.49837781614813
4440,23.567386643098005
4480,23.619199981586499
4520,23.20085062822214
4560,23.652832863800755
4600,23.529442834807896
4640,23.612888588398456
4680,23.656830473766349
4720,23.693892441088026
4760,23.964094014913369
4800,23.999999999175097
4840,23.999714448002665
4880,23.55696741603798
4920,23.79299772146678
4960,23.961265477427923
5000,23.895710967741118
5040,23.404280305589646
5080,24.00000000000001
2,1, 7,21, 0, 9, 0.00,15.00,SummerDesignDay
8,16.719976125973248
10,12341377.372310153
5194,38436.6540396149
5231,6156165.454223124
2,1, 7,21, 0, 9,15.00,30.00,SummerDesignDay
8,16.845887031033866
10,12341377.372310153
5194,0.0
5231,8541586.33673535
2,1, 7,21, 0, 9,30.00,45.00,SummerDesignDay
8,16.97121406007895
10,12341377.372310153
5194,0.0
5231,11477495.110309916
2,1, 7,21, 0, 9,45.00,60.00,SummerDesignDay
8,17.09597057951627
10,12341377.372310153
5194,0.0
5231,13934863.23704513
2,1, 7,21, 0, 9, 0.00,60.00,SummerDesignDay
2440,23.999999997848329
2480,24.000000000000015
2520,23.999999999999998
2560,23.999995824548749
2600,22.336910660610998
2640,22.360419841612374
2680,22.306923308116585
2720,22.302892093791063
2760,23.398830174257669
2800,22.04042533929902
2840,24.00000000000002
2880,23.999999829331555
2920,23.966418871956934
2960,23.99999999883856
3000,23.999999928678557
3040,23.9053918497131
3080,23.999998497348288
3120,24.000000000000005
3160,23.99999999997858
3200,23.904128181497254
3240,23.844697420462479
3280,23.87225416389239
3320,23.881328973950685
3360,23.973995664144959
3400,23.95214976733246
3440,24.000000000000008
3480,23.999999999999888
3520,23.999985090413199
3560,23.97832375076652
3600,23.999983565334529
3640,23.99999996206843
3680,23.999998493059019
3720,23.964717009841878
3760,23.999999905972876
3800,23.999999999025016
3840,23.999999267909094
3880,23.9999769892784
3920,23.9921257160808
3960,23.96513660379867
4000,23.99247473828209
4040,23.999999421313338
4080,23.999983245595894
4120,23.900930947642764