Program Version,EnergyPlus, Version 8.9.0-eba93e8e1b, YMD=2018.09.18 17:10
1,5,Environment Title[],Latitude[deg],Longitude[deg],Time Zone[],Elevation[m]
2,8,Day of Simulation[],Month[],Day of Month[],DST Indicator[1=yes 0=no],Hour[],StartMinute[],EndMinute[],DayType
3,5,Cumulative Day of Simulation[],Month[],Day of Month[],DST Indicator[1=yes 0=no],DayType  ! When Daily Report Variables Requested
4,2,Cumulative Days of Simulation[],Month[]  ! When Monthly Report Variables Requested
5,1,Cumulative Days of Simulation[] ! When Run Period Report Variables Requested
6,1,Calendar Year of Simulation[] ! When Annual Report Variables Requested
7,9,Environment,Site Outdoor Air Drybulb Temperature [C] !Monthly [Value,Min,Day,Hour,Minute,Max,Day,Hour,Minute]
8,1,Environment,Site Outdoor Air Wetbulb Temperature [C] !TimeStep
555,1,SP-ATTIC SYS-0 FLR-2 SCH-- UNDEFINED - HPLCMT-CORE ZN,Zone Air Temperature [C] !Hourly
556,7,SP-ATTIC SYS-0 FLR-2 SCH-- UNDEFINED - HPLCMT-CORE ZN,Zone Air Relative Humidity [%] !Daily [Value,Min,Hour,Minute,Max,Hour,Minute]
595,1,SP-CORE_ZN SYS-3 FLR-1 SCH-A HPLCMT-CORE ZN,Zone Air Temperature [C] !Hourly
596,7,SP-CORE_ZN SYS-3 FLR-1 SCH-A HPLCMT-CORE ZN,Zone Air Relative Humidity [%] !Daily [Value,Min,Hour,Minute,Max,Hour,Minute]
635,1,SP-PERIMETER_ZN_1 SYS-3 FLR-1 SCH-A HPLCMT-SOUTH ZN,Zone Air Temperature [C] !Hourly
636,7,SP-PERIMETER_ZN_1 SYS-3 FLR-1 SCH-A HPLCMT-SOUTH ZN,Zone Air Relative Humidity [%] !Daily [Value,Min,Hour,Minute,Max,Hour,Minute]
675,1,SP-PERIMETER_ZN_2 SYS-3 FLR-1 SCH-A HPLCMT-EAST ZN,Zone Air Temperature [C] !Hourly
676,7,SP-PERIMETER_ZN_2 SYS-3 FLR-1 SCH-A HPLCMT-EAST ZN,Zone Air Relative Humidity [%] !Daily [Value,Min,Hour,Minute,Max,Hour,Minute]
715,1,SP-PERIMETER_ZN_3 SYS-3 FLR-1 SCH-A HPLCMT-NORTH ZN,Zone Air Temperature [C] !Hourly
716,7,SP-PERIMETER_ZN_3 SYS-3 FLR-1 SCH-A HPLCMT-NORTH ZN,Zone Air Relative Humidity [%] !Daily [Value,Min,Hour,Minute,Max,Hour,Minute]
755,1,SP-PERIMETER_ZN_4 SYS-3 FLR-1 SCH-A HPLCMT-WEST ZN,Zone Air Temperature [C] !Hourly
756,7,SP-PERIMETER_ZN_4 SYS-3 FLR-1 SCH-A HPLCMT-WEST ZN,Zone Air Relative Humidity [%] !Daily [Value,Min,Hour,Minute,Max,Hour,Minute]
10,1,Electricity:Facility [J] !TimeStep
321,1,Gas:Facility [J] !TimeStep
End of Data Dictionary
1,VANCOUVER INTL AP ANN CLG .4% CONDNS DB=>MWB,  49.20,-123.18,  -8.00,   4.30
2,1, 7,21, 0, 1, 0.00,10.00,SummerDesignDay
8,16.352199953652215
10,1930854.097914352
321,12000.0
2,1, 7,21, 0, 1,10.00,20.00,SummerDesignDay
8,16.3252576442975
10,1930854.097914352
321,12000.0
2,1, 7,21, 0, 1,20.00,30.00,SummerDesignDay
8,16.2982938306074
10,1930854.097914352
321,12000.0
2,1, 7,21, 0, 1,30.00,40.00,SummerDesignDay
8,16.271298954341999
10,1930854.097914352
321,12000.0
2,1, 7,21, 0, 1,40.00,50.00,SummerDesignDay
8,16.244276700157607
10,1930854.097914352
321,12000.0
2,1, 7,21, 0, 1,50.00,60.00,SummerDesignDay
8,16.217228272321866
10,1930854.097914352
321,12000.0
2,1, 7,21, 0, 1, 0.00,60.00,SummerDesignDay
555,25.137641896172487
595,26.17451756017249
635,26.305872922770268
675,27.08520609349807
715,25.951707650068746
755,27.676372484827608
2,1, 7,21, 0, 2, 0.00,10.00,SummerDesignDay
8,16.199184445315237
10,1930854.097914352
321,550348.8047456654
2,1, 7,21, 0, 2,10.00,20.00,SummerDesignDay
8,16.181123823551326
10,1930854.097914352
321,12000.0
2,1, 7,21, 0, 2,20.00,30.00,SummerDesignDay
8,16.163056857826836
10,1930854.097914352
321,12000.0
2,1, 7,21, 0, 2,30.00,40.00,SummerDesignDay
8,16.144971888810827
10,1930854.097914352
321,12000.0
2,1, 7,21, 0, 2,40.00,50.00,SummerDesignDay
8,16.12688104636919
10,1930854.097914352
321,12000.0
2,1, 7,21, 0, 2,50.00,60.00,SummerDesignDay
8,16.108773026303486
10,1930854.097914352
321,12000.0
2,1, 7,21, 0, 2, 0.00,60.00,SummerDesignDay
555,24.994362860620588
595,26.03282572942139
635,26.142468639123427
675,26.957304620804896
715,25.79692799164816
755,27.52989538381352
2,1, 7,21, 0, 3, 0.00,10.00,SummerDesignDay
8,16.095187997840726
10,1930854.097914352
321,554520.1310572566
2,1, 7,21, 0, 3,10.00,20.00,SummerDesignDay
8,16.08159647937563
10,1930854.097914352
321,12000.0
2,1, 7,21, 0, 3,20.00,30.00,SummerDesignDay
8,16.067992103020477
10,1930854.097914352
321,12000.0
2,1, 7,21, 0, 3,30.00,40.00,SummerDesignDay
8,16.054387489767213
10,1930854.097914352
321,12000.0
2,1, 7,21, 0, 3,40.00,50.00,SummerDesignDay
8,16.040775235496488
10,1930854.097914352
321,12000.0
2,1, 7,21, 0, 3,50.00,60.00,SummerDesignDay
8,16.027151463515208
10,1930854.097914352
321,12000.0
2,1, 7,21, 0, 3, 0.00,60.00,SummerDesignDay
555,24.86385799084748
595,25.904984194505344
635,25.99033735872808
675,26.827503598616475
715,25.653969944271294
755,27.377880375897204
2,1, 7,21, 0, 4, 0.00,10.00,SummerDesignDay
8,16.013526309671386
10,1930854.097914352
321,558154.577502564
2,1, 7,21, 0, 4,10.00,20.00,SummerDesignDay
8,15.999888590638458
10,1930854.097914352
321,12000.0
2,1, 7,21, 0, 4,20.00,30.00,SummerDesignDay
8,15.986249958378048
10,1930854.097914352
321,12000.0
2,1, 7,21, 0, 4,30.00,40.00,SummerDesignDay
8,15.972604339068287
10,1930854.097914352
321,12000.0
2,1, 7,21, 0, 4,40.00,50.00,SummerDesignDay
8,15.958946698244901
10,1930854.097914352
321,12000.0
2,1, 7,21, 0, 4,50.00,60.00,SummerDesignDay
8,15.945287702730492
10,1930854.097914352
321,12000.0
2,1, 7,21, 0, 4, 0.00,60.00,SummerDesignDay
555,24.738934247406779
595,25.78479053952442
635,25.847665771322864
675,26.69906658297982
715,25.517634089413993
755,27.227397621091087
2,1, 7,21, 0, 5, 0.00,10.00,SummerDesignDay
8,15.936177990809899
10,1930854.097914352
321,224366.7580577789
2,1, 7,21, 0, 5,10.00,20.00,SummerDesignDay
8,15.92705949178547
10,1930854.097914352
321,379951.8430193554
2,1, 7,21, 0, 5,20.00,30.00,SummerDesignDay
8,15.917943710706878
10,1930854.097914352
321,12000.0
2,1, 7,21, 0, 5,30.00,40.00,SummerDesignDay
8,15.908825155859729
10,1930854.097914352
321,12000.0
2,1, 7,21, 0, 5,40.00,50.00,SummerDesignDay
8,15.89970321878413
10,1930854.097914352
321,12000.0
2,1, 7,21, 0, 5,50.00,60.00,SummerDesignDay
8,15.89058503181825
10,1930854.097914352
321,12000.0
2,1, 7,21, 0, 5, 0.00,60.00,SummerDesignDay
555,24.64888097402337
595,25.67044781851845
635,25.717892027700107
675,26.647387591290128
715,25.41899492010482
755,27.087038054508175
2,1, 7,21, 0, 6, 0.00,10.00,SummerDesignDay
8,15.89970321878413
10,1937680.6008911723
321,12000.0
2,1, 7,21, 0, 6,10.00,20.00,SummerDesignDay
8,15.908825155859729
10,1938415.712904895
321,553108.353363177
2,1, 7,21, 0, 6,20.00,30.00,SummerDesignDay
8,15.917943710706878
10,1939978.0263093706
321,12000.0
2,1, 7,21, 0, 6,30.00,40.00,SummerDesignDay
8,15.92705949178547
10,1942172.7108305013
321,12000.0
2,1, 7,21, 0, 6,40.00,50.00,SummerDesignDay
8,15.936177990809899
10,1943572.7158575056
321,12000.0
2,1, 7,21, 0, 6,50.00,60.00,SummerDesignDay
8,15.945287702730492
10,1944554.6020790383
321,12000.0
2,1, 7,21, 0, 6, 0.00,60.00,SummerDesignDay
555,24.934117270308034
595,25.662997159400005
635,25.74142405235011
675,27.471006509059536
715,25.672949469449667
755,27.07011622644126
2,1, 7,21, 0, 7, 0.00,10.00,SummerDesignDay
8,15.977153459569559
10,3920520.378510887
321,30020.247837537223
2,1, 7,21, 0, 7,10.00,20.00,SummerDesignDay
8,16.00898303120887
10,3721877.593805954
321,584863.4097613774
2,1, 7,21, 0, 7,20.00,30.00,SummerDesignDay
8,16.040775235496488
10,3445060.761034576
321,12000.0
2,1, 7,21, 0, 7,30.00,40.00,SummerDesignDay
8,16.072525945973774
10,3273284.628374645
321,12000.0
2,1, 7,21, 0, 7,40.00,50.00,SummerDesignDay
8,16.104245538982189
10,3217504.946037442
321,12000.0
2,1, 7,21, 0, 7,50.00,60.00,SummerDesignDay
8,16.135928228205914
10,3177897.451075855
321,12000.0
2,1, 7,21, 0, 7, 0.00,60.00,SummerDesignDay
555,25.443092778803579
595,24.087535049768435
635,24.051942307650095
675,24.25392085598018
715,24.08338663114859
755,24.0844789799585
2,1, 7,21, 0, 8, 0.00,10.00,SummerDesignDay
8,16.212718231329928
10,4185617.220707157
321,169853.66996466544
2,1, 7,21, 0, 8,10.00,20.00,SummerDesignDay
8,16.289295095914626
10,4198647.646576911
321,449957.69589968878
2,1, 7,21, 0, 8,20.00,30.00,SummerDesignDay
8,16.365658732225424
10,4202404.553394865
321,12000.0
2,1, 7,21, 0, 8,30.00,40.00,SummerDesignDay
8,16.44181049723187
10,4205820.566817896
321,12000.0
2,1, 7,21, 0, 8,40.00,50.00,SummerDesignDay
8,16.517756147764346
10,4210932.697856678
321,575971.9135844616
2,1, 7,21, 0, 8,50.00,60.00,SummerDesignDay
8,16.593486849767513
10,4217743.438090516
321,12000.0
2,1, 7,21, 0, 8, 0.00,60.00,SummerDesignDay
555,26.199783993992587
595,23.99972287939836
635,23.999787066288005
675,23.99915916089712
715,23.99971633924962
755,23.999912588557299
2,1, 7,21, 0, 9, 0.00,10.00,SummerDesignDay
8,16.677878063199516
10,8119949.180126319
321,833651.5916720468
2,1, 7,21, 0, 9,10.00,20.00,SummerDesignDay
8,16.76200946235728
10,8198989.449228255
321,881747.4010601614
2,1, 7,21, 0, 9,20.00,30.00,SummerDesignDay
8,16.845887031033866
10,8233410.570725472
321,882011.4667904889
2,1, 7,21, 0, 9,30.00,40.00,SummerDesignDay
8,16.929502190751337
10,8268142.879562272
321,828694.5094639139
2,1, 7,21, 0, 9,40.00,50.00,SummerDesignDay
8,17.012861351115086
10,8300893.643131411
321,745791.260833668
2,1, 7,21, 0, 9,50.00,60.00,SummerDesignDay
8,17.09597057951627
10,8330094.110729879
321,745028.069794567
2,1, 7,21, 0, 9, 0.00,60.00,SummerDesignDay
555,27.01996638129502
595,23.998971760604559
635,23.999212937083244
675,23.999018729116306
715,23.99900111424685
755,23.999599382070213
2,1, 7,21, 0,10, 0.00,10.00,SummerDesignDay
8,17.17011313897211
10,9073669.981011885
321,744200.6918967994
2,1, 7,21, 0,10,10.00,20.00,SummerDesignDay
8,17.24405314489198
10,9105419.417745924
321,743351.151718191
2,1, 7,21, 0,10,20.00,30.00,SummerDesignDay
8,17.317792342150307
10,9130794.752088495
321,742480.6965317322
2,1, 7,21, 0,10,30.00,40.00,SummerDesignDay
8,17.391330750865035
10,9151599.803586116
321,803127.6313241026
2,1, 7,21, 0,10,40.00,50.00,SummerDesignDay
8,17.464669750704549
10,9166108.542580679
321,880746.2469325367
2,1, 7,21, 0,10,50.00,60.00,SummerDesignDay
8,17.537810589481837
10,9174249.355693154
321,880942.1095790045
2,1, 7,21, 0,10, 0.00,60.00,SummerDesignDay
555,27.85463345667301
595,23.998418005271465
635,23.998659574010799
675,23.998649920555395
715,23.99846280785414
755,23.999322858809319
2,1, 7,21, 0,11, 0.00,10.00,SummerDesignDay
8,17.60218312883583
10,9175858.070265403
321,1659128.6724130917
2,1, 7,21, 0,11,10.00,20.00,SummerDesignDay
8,17.666401914182499
10,9193294.5526722
321,1235644.9777151852
2,1, 7,21, 0,11,20.00,30.00,SummerDesignDay
8,17.73046886665172
10,9192856.006700768
321,1258763.3940049969
2,1, 7,21, 0,11,30.00,40.00,SummerDesignDay
8,17.794377337180749
10,9195542.654890351
321,1821048.5502897867
2,1, 7,21, 0,11,40.00,50.00,SummerDesignDay
8,17.858140091722729
10,9198262.082321773
321,1235571.6406892818
2,1, 7,21, 0,11,50.00,60.00,SummerDesignDay
8,17.921751671476274
10,9200358.451601576
321,1326850.22341045
2,1, 7,21, 0,11, 0.00,60.00,SummerDesignDay
555,28.56154435856762
595,23.998166486824407
635,23.998154639612399
675,23.998786010305868
715,23.998227469699768
755,23.99916280758538
2,1, 7,21, 0,12, 0.00,10.00,SummerDesignDay
8,17.964074041059168
10,9201144.650331503
321,1762943.146415291
2,1, 7,21, 0,12,10.00,20.00,SummerDesignDay
8,18.00633512830953
10,9201854.128573105
321,1235525.7460875258
2,1, 7,21, 0,12,20.00,30.00,SummerDesignDay
8,18.048524057857607
10,9205142.186802062
321,1395010.3127880123
2,1, 7,21, 0,12,30.00,40.00,SummerDesignDay
8,18.090647246552004
10,9218883.067592113
321,1701926.108805417
2,1, 7,21, 0,12,40.00,50.00,SummerDesignDay
8,18.132703529720616
10,9230616.359588333
321,1235476.849064183
2,1, 7,21, 0,12,50.00,60.00,SummerDesignDay
8,18.17469964536842
10,9240071.338979913
321,1462821.1974346128
2,1, 7,21, 0,12, 0.00,60.00,SummerDesignDay
555,29.092750015719945
595,23.997876697237527
635,24.004038390843676
675,23.99883945141923
715,23.997964742787344
755,23.9990324039744
2,1, 7,21, 0,13, 0.00,10.00,SummerDesignDay
8,18.208245339828517
10,9211690.18049787
321,1638651.4141314827
2,1, 7,21, 0,13,10.00,20.00,SummerDesignDay
8,18.241744233723979
10,9217026.350596497
321,1235425.0159718947
2,1, 7,21, 0,13,20.00,30.00,SummerDesignDay
8,18.2752069112248
10,9222584.161484944
321,1529844.682758945
2,1, 7,21, 0,13,30.00,40.00,SummerDesignDay
8,18.30862693969058
10,9228596.001239576
321,1573723.9022084478
2,1, 7,21, 0,13,40.00,50.00,SummerDesignDay
8,18.342005526737105
10,9234618.734521075
321,1235370.304522884
2,1, 7,21, 0,13,50.00,60.00,SummerDesignDay
8,18.375341817792614
10,9241577.71627861
321,1595631.5864244148
2,1, 7,21, 0,13, 0.00,60.00,SummerDesignDay
555,29.43218297307472
595,23.998091283460967
635,24.02600153779737
675,23.998951165909629
715,23.998164503900978
755,23.999147229618115
2,1, 7,21, 0,14, 0.00,10.00,SummerDesignDay
8,18.39615811087369
10,9246619.66953479
321,1507678.5936039366
2,1, 7,21, 0,14,10.00,20.00,SummerDesignDay
8,18.416957955881725
10,9251619.521796208
321,1235312.7564581577
2,1, 7,21, 0,14,20.00,30.00,SummerDesignDay
8,18.43773680274513
10,9261043.549489582
321,1659727.3935799595
2,1, 7,21, 0,14,30.00,40.00,SummerDesignDay
8,18.458504433044504
10,9268172.059272385
321,1440967.6498403107
2,1, 7,21, 0,14,40.00,50.00,SummerDesignDay
8,18.479250383250578
10,9280804.484559006
321,1235252.3904676988
2,1, 7,21, 0,14,50.00,60.00,SummerDesignDay
8,18.499985692685468
10,9300898.420549553
321,1721676.911300165
2,1, 7,21, 0,14, 0.00,60.00,SummerDesignDay
555,29.59061118018118
595,23.998221163260273
635,24.010650375274439
675,23.99900871381276
715,23.998281907393559
755,23.99916075430956
2,1, 7,21, 0,15, 0.00,10.00,SummerDesignDay
8,18.499985692685468
10,9367010.532704816
321,1373953.8994356865
2,1, 7,21, 0,15,10.00,20.00,SummerDesignDay
8,18.499985692685468
10,9395261.875266957
321,1235189.1953417548
2,1, 7,21, 0,15,20.00,30.00,SummerDesignDay
8,18.499985692685468
10,9430768.440390349
321,1781027.5729321284
2,1, 7,21, 0,15,30.00,40.00,SummerDesignDay
8,18.499985692685468
10,9467228.122147754
321,1306909.414379076
2,1, 7,21, 0,15,40.00,50.00,SummerDesignDay
8,18.499985692685468
10,9501868.447066855
321,1235123.1231713766
2,1, 7,21, 0,15,50.00,60.00,SummerDesignDay
8,18.499985692685468
10,9532231.315080686
321,1837331.120692146
2,1, 7,21, 0,15, 0.00,60.00,SummerDesignDay
555,29.558999191149409
595,24.016062873264678
635,23.998201950616744
675,23.99882520148194
715,24.008160895502259
755,23.998540440048545
2,1, 7,21, 0,16, 0.00,10.00,SummerDesignDay
8,18.475102970177127
10,9551969.78306122
321,1240017.4758519224
2,1, 7,21, 0,16,10.00,20.00,SummerDesignDay
8,18.450201543271235
10,9564896.38535375
321,1235054.0823135486
2,1, 7,21, 0,16,20.00,30.00,SummerDesignDay
8,18.425271777286019
10,9569403.665052908
321,1840780.0225992939
2,1, 7,21, 0,16,30.00,40.00,SummerDesignDay
8,18.40031825447926
10,9569081.95148255
321,1235755.0949799759
2,1, 7,21, 0,16,40.00,50.00,SummerDesignDay
8,18.375341817792614
10,9566152.949447886
321,1234982.7659097957
2,1, 7,21, 0,16,50.00,60.00,SummerDesignDay
8,18.350347174046595
10,9561453.072535104
321,1840780.0225992939
2,1, 7,21, 0,16, 0.00,60.00,SummerDesignDay
555,29.32279583651341
595,24.0990886239366
635,23.998078344852279
675,23.998728140121558
715,24.090717780166558
755,23.997880800306093
2,1, 7,21, 0,17, 0.00,10.00,SummerDesignDay
8,18.316978860635527
10,9554778.354544076
321,1078568.6569053608
2,1, 7,21, 0,17,10.00,20.00,SummerDesignDay
8,18.2835693630182
10,9544813.4196885
321,1056125.0766702933
2,1, 7,21, 0,17,20.00,30.00,SummerDesignDay
8,18.250118050746214
10,9536624.598212533
321,1055731.0963537954
2,1, 7,21, 0,17,30.00,40.00,SummerDesignDay
8,18.216624325548968
10,9528062.842637005
321,1055336.19757427
2,1, 7,21, 0,17,40.00,50.00,SummerDesignDay
8,18.183088861944893
10,9519669.421006069
321,1054936.1212153589
2,1, 7,21, 0,17,50.00,60.00,SummerDesignDay
8,18.149510843493635
10,9511501.848008808
321,1076781.0708620274
2,1, 7,21, 0,17, 0.00,60.00,SummerDesignDay
555,28.89184616038168
595,24.12980376709753
635,23.998136049164754
675,23.998787003522069
715,24.12281453145359
755,23.99801731623673
2,1, 7,21, 0,18, 0.00,10.00,SummerDesignDay
8,18.10748062898272
10,9110718.583211208
321,906468.8281193709
2,1, 7,21, 0,18,10.00,20.00,SummerDesignDay
8,18.065379091048376
10,9084371.676863362
321,880891.6487436141
2,1, 7,21, 0,18,20.00,30.00,SummerDesignDay
8,18.023216461654344
10,9059846.167993095
321,881096.9237866883
2,1, 7,21, 0,18,30.00,40.00,SummerDesignDay
8,17.980987605947548
10,9045339.902200092
321,881319.091023591
2,1, 7,21, 0,18,40.00,50.00,SummerDesignDay
8,17.93869205826644
10,9031806.450590086
321,881542.892007793
2,1, 7,21, 0,18,50.00,60.00,SummerDesignDay
8,17.89632405402092
10,9017764.233981662
321,881767.1974591556
2,1, 7,21, 0,18, 0.00,60.00,SummerDesignDay
555,28.285133676819784
595,24.010756893225986
635,23.998466733485335
675,23.999048191144195
715,24.008779449939053
755,23.998436486913545
2,1, 7,21, 0,19, 0.00,10.00,SummerDesignDay
8,17.832657261722244
10,6698776.154883288
321,509090.5096484401
2,1, 7,21, 0,19,10.00,20.00,SummerDesignDay
8,17.768833985856515
10,6631609.426938699
321,252970.4205844359
2,1, 7,21, 0,19,20.00,30.00,SummerDesignDay
8,17.704859478274899
10,6588263.2516467799
321,690833.6066450385
2,1, 7,21, 0,19,30.00,40.00,SummerDesignDay
8,17.640731707059819
10,6544422.432935843
321,693430.0452823524
2,1, 7,21, 0,19,40.00,50.00,SummerDesignDay
8,17.576451319157326
10,6501580.69304551
321,255695.88675251403
2,1, 7,21, 0,19,50.00,60.00,SummerDesignDay
8,17.512016904905339
10,6460979.093469112
321,494484.7170183437
2,1, 7,21, 0,19, 0.00,60.00,SummerDesignDay
555,27.52597562989662
595,23.998987266733449
635,23.99922335789651
675,23.999514355621746
715,23.998957882766335
755,23.999126905232158
2,1, 7,21, 0,20, 0.00,10.00,SummerDesignDay
8,17.464669750704549
10,4645147.960948253
321,633948.0275906805
2,1, 7,21, 0,20,10.00,20.00,SummerDesignDay
8,17.417239543286124
10,4573882.104759364
321,12000.0
2,1, 7,21, 0,20,20.00,30.00,SummerDesignDay
8,17.369720602565694
10,4515064.277208572
321,627206.9630211687
2,1, 7,21, 0,20,30.00,40.00,SummerDesignDay
8,17.32212315858905
10,4451206.249465595
321,12000.0
2,1, 7,21, 0,20,40.00,50.00,SummerDesignDay
8,17.27444149556641
10,4382809.322270654
321,626030.4750862507
2,1, 7,21, 0,20,50.00,60.00,SummerDesignDay
8,17.22667133087272
10,4313632.522612694
321,220893.3763976106
2,1, 7,21, 0,20, 0.00,60.00,SummerDesignDay
555,26.741113831577598
595,23.999606617164728
635,23.999690181437847
675,23.999791058223285
715,23.99953811091758
755,23.999688737973469
2,1, 7,21, 0,21, 0.00,10.00,SummerDesignDay
8,17.187526559563478
10,4243454.846123865
321,459718.2506387968
2,1, 7,21, 0,21,10.00,20.00,SummerDesignDay
8,17.14832575016431
10,4193854.885465391
321,500383.83482015019
2,1, 7,21, 0,21,20.00,30.00,SummerDesignDay
8,17.109067882849585
10,4154531.1905977635
321,177389.11010999408
2,1, 7,21, 0,21,30.00,40.00,SummerDesignDay
8,17.06975316359479
10,4121412.613388325
321,629961.9634461886
2,1, 7,21, 0,21,40.00,50.00,SummerDesignDay
8,17.030381184961106
10,4092138.823764592
321,12000.0
2,1, 7,21, 0,21,50.00,60.00,SummerDesignDay
8,16.990952199245954
10,4066382.648557177
321,628922.5378517076
2,1, 7,21, 0,21, 0.00,60.00,SummerDesignDay
555,26.0682728763479
595,23.999791552591405
635,23.99983074215559
675,23.999873449527695
715,23.999813208373128
755,23.999886358840305
2,1, 7,21, 0,22, 0.00,10.00,SummerDesignDay
8,16.951466381705289
10,2117094.4893641176
321,12000.0
2,1, 7,21, 0,22,10.00,20.00,SummerDesignDay
8,16.91191764298267
10,2111812.8820730245
321,734362.4491067982
2,1, 7,21, 0,22,20.00,30.00,SummerDesignDay
8,16.872316270901277
10,2077314.9173749027
321,86843.76811216613
2,1, 7,21, 0,22,30.00,40.00,SummerDesignDay
8,16.832657583970926
10,2062663.3831855504
321,710394.5025039057
2,1, 7,21, 0,22,40.00,50.00,SummerDesignDay
8,16.792940913271754
10,2104992.2644611729
321,12000.0
2,1, 7,21, 0,22,50.00,60.00,SummerDesignDay
8,16.75316676384634
10,2072939.843975711
321,625714.118963653
2,1, 7,21, 0,22, 0.00,60.00,SummerDesignDay
555,25.734738058282067
595,25.474919446131627
635,25.645113719020818
675,26.01423699179456
715,25.476983213969264
755,26.3968905219529
2,1, 7,21, 0,23, 0.00,10.00,SummerDesignDay
8,16.722189413934204
10,2107375.3458234339
321,12000.0
2,1, 7,21, 0,23,10.00,20.00,SummerDesignDay
8,16.691177401191405
10,2085904.84002783
321,12000.0
2,1, 7,21, 0,23,20.00,30.00,SummerDesignDay
8,16.660129834097096
10,2059528.4921195536
321,12000.0
2,1, 7,21, 0,23,30.00,40.00,SummerDesignDay
8,16.62905234664031
10,2066233.1951219994
321,553378.119876773
2,1, 7,21, 0,23,40.00,50.00,SummerDesignDay
8,16.597934345516849
10,2059528.4921195536
321,12000.0
2,1, 7,21, 0,23,50.00,60.00,SummerDesignDay
8,16.566780836645607
10,2059528.4921195536
321,12000.0
2,1, 7,21, 0,23, 0.00,60.00,SummerDesignDay
555,25.47948429965687
595,26.28687429056872
635,26.448446656577074
675,27.049999809730747
715,26.168395229258768
755,27.572915808683793
2,1, 7,21, 0,24, 0.00,10.00,SummerDesignDay
8,16.53559150074222
10,1930854.097914352
321,12000.0
2,1, 7,21, 0,24,10.00,20.00,SummerDesignDay
8,16.504366423325597
10,1930854.097914352
321,12000.0
2,1, 7,21, 0,24,20.00,30.00,SummerDesignDay
8,16.473106420779854
10,1930854.097914352
321,12000.0
2,1, 7,21, 0,24,30.00,40.00,SummerDesignDay
8,16.44181049723187
10,1930854.097914352
321,556990.4645536743
2,1, 7,21, 0,24,40.00,50.00,SummerDesignDay
8,16.410483695355663
10,1930854.097914352
321,12000.0
2,1, 7,21, 0,24,50.00,60.00,SummerDesignDay
8,16.379116168301004
10,1930854.097914352
321,12000.0
2,1, 7,21, 0,24, 0.00,60.00,SummerDesignDay
555,25.298323613794904
595,26.323044795445914
635,26.464926596513626
675,27.185408604265594
715,26.120759342916725
755,27.775551812127647
3,1, 7,21, 0,SummerDesignDay
556,48.27865142034138,40.97061363860164,14,60,54.89632914183568, 5,40
596,50.03975641872925,45.003112770452158,22,29,55.64729225520894, 7, 6
636,48.77037499899425,44.263870171158277,22,29,55.87736423302147, 7, 5
676,46.309358165872,42.35167693341466, 9,10,53.302383248783247, 7, 7
716,49.637825991971258,44.69757232740555,22,20,55.53268217086974, 7, 6
756,45.981098768112428,39.88625969383088,22,40,54.6050788981416, 7, 4
4,1, 7
7,21.0245,17.5,21, 5,60,25.1,21,14,60
1,VANCOUVER INTL AP ANN HTG 99.6% CONDNS DB,  49.20,-123.18,  -8.00,   4.30
2,1,12,21, 0, 1, 0.00,10.00,WinterDesignDay
8,-6.1
10,1930854.097914352
321,4019623.0819077098
2,1,12,21, 0, 1,10.00,20.00,WinterDesignDay
8,-6.1
10,1930854.097914352
321,4065066.3921764816
2,1,12,21, 0, 1,20.00,30.00,WinterDesignDay
8,-6.1
10,1930854.097914352
321,4109981.4831400236
2,1,12,21, 0, 1,30.00,40.00,WinterDesignDay
8,-6.1
10,1930854.097914352
321,4154134.4428839345
2,1,12,21, 0, 1,40.00,50.00,WinterDesignDay
8,-6.1
10,1930854.097914352
321,4197491.824096215
2,1,12,21, 0, 1,50.00,60.00,WinterDesignDay
8,-6.1
10,1930854.097914352
321,4786696.524399482
2,1,12,21, 0, 1, 0.00,60.00,WinterDesignDay
555,14.347523186597876
595,17.999977924719784
635,18.00005582129454
675,18.000051602060898
715,18.000056760472668
755,18.000051832531488
2,1,12,21, 0, 2, 0.00,10.00,WinterDesignDay
8,-6.1
10,1930854.097914352
321,4281661.191575634
2,1,12,21, 0, 2,10.00,20.00,WinterDesignDay
8,-6.1
10,1930854.097914352
321,4322322.837439041
2,1,12,21, 0, 2,20.00,30.00,WinterDesignDay
8,-6.1
10,1930854.097914352
321,4362599.28055544
2,1,12,21, 0, 2,30.00,40.00,WinterDesignDay
8,-6.1
10,1930854.097914352
321,4402050.842520761
2,1,12,21, 0, 2,40.00,50.00,WinterDesignDay
8,-6.1
10,1930854.097914352
321,4441579.469156616
2,1,12,21, 0, 2,50.00,60.00,WinterDesignDay
8,-6.1
10,1930854.097914352
321,5023300.538074993
2,1,12,21, 0, 2, 0.00,60.00,WinterDesignDay
555,14.162549699894174
595,17.99998788506052
635,18.00004498760548
675,18.00004147805883
715,18.00004555854567
755,18.000041604619758
2,1,12,21, 0, 3, 0.00,10.00,WinterDesignDay
8,-6.1
10,1930854.097914352
321,4520213.825066348
2,1,12,21, 0, 3,10.00,20.00,WinterDesignDay
8,-6.1
10,1930854.097914352
321,4559198.866045903
2,1,12,21, 0, 3,20.00,30.00,WinterDesignDay
8,-6.1
10,1930854.097914352
321,4598105.677508164
2,1,12,21, 0, 3,30.00,40.00,WinterDesignDay
8,-6.1
10,1930854.097914352
321,4636693.531363152
2,1,12,21, 0, 3,40.00,50.00,WinterDesignDay
8,-6.1
10,1930854.097914352
321,5177303.14293532
2,1,12,21, 0, 3,50.00,60.00,WinterDesignDay
8,-6.1
10,1930854.097914352
321,4775261.81393318
2,1,12,21, 0, 3, 0.00,60.00,WinterDesignDay
555,13.986587353847739
595,17.999993515732446
635,18.000037428902976
675,18.000034276862185
715,18.000038205874323
755,18.00003432835428
2,1,12,21, 0, 4, 0.00,10.00,WinterDesignDay
8,-6.1
10,1930854.097914352
321,4749251.537680091
2,1,12,21, 0, 4,10.00,20.00,WinterDesignDay
8,-6.1
10,1930854.097914352
321,4785903.413718776
2,1,12,21, 0, 4,20.00,30.00,WinterDesignDay
8,-6.1
10,1930854.097914352
321,4822667.1723420149
2,1,12,21, 0, 4,30.00,40.00,WinterDesignDay
8,-6.1
10,1930854.097914352
321,4860445.140572002
2,1,12,21, 0, 4,40.00,50.00,WinterDesignDay
8,-6.1
10,1930854.097914352
321,5445059.412937807
2,1,12,21, 0, 4,50.00,60.00,WinterDesignDay
8,-6.1
10,1930854.097914352
321,4935634.184862194
2,1,12,21, 0, 4, 0.00,60.00,WinterDesignDay
555,13.821867700315034
595,17.9999968461012
635,18.00003205931416
675,18.000028914628154
715,18.000033137494847
755,18.000028861784057
2,1,12,21, 0, 5, 0.00,10.00,WinterDesignDay
8,-6.1
10,1930854.097914352
321,4972737.863204237
2,1,12,21, 0, 5,10.00,20.00,WinterDesignDay
8,-6.1
10,1930854.097914352
321,5010098.701764344
2,1,12,21, 0, 5,20.00,30.00,WinterDesignDay
8,-6.1
10,1930854.097914352
321,5047279.463509083
2,1,12,21, 0, 5,30.00,40.00,WinterDesignDay
8,-6.1
10,1930854.097914352
321,5084184.31874384
2,1,12,21, 0, 5,40.00,50.00,WinterDesignDay
8,-6.1
10,1930854.097914352
321,5663233.868851784
2,1,12,21, 0, 5,50.00,60.00,WinterDesignDay
8,-6.1
10,1930854.097914352
321,5156348.128455855
2,1,12,21, 0, 5, 0.00,60.00,WinterDesignDay
555,13.667442053821887
595,17.999999408520865
635,18.00002830435947
675,18.0000249146004
715,18.000029731626549
755,18.000024729701388
2,1,12,21, 0, 6, 0.00,10.00,WinterDesignDay
8,-6.1
10,1930854.097914352
321,5191346.74557312
2,1,12,21, 0, 6,10.00,20.00,WinterDesignDay
8,-6.1
10,1930854.097914352
321,5226918.003925354
2,1,12,21, 0, 6,20.00,30.00,WinterDesignDay
8,-6.1
10,1930854.097914352
321,5262358.026442245
2,1,12,21, 0, 6,30.00,40.00,WinterDesignDay
8,-6.1
10,1930854.097914352
321,5761666.594635689
2,1,12,21, 0, 6,40.00,50.00,WinterDesignDay
8,-6.1
10,1930854.097914352
321,5442777.265707668
2,1,12,21, 0, 6,50.00,60.00,WinterDesignDay
8,-6.1
10,1930854.097914352
321,5366899.915826866
2,1,12,21, 0, 6, 0.00,60.00,WinterDesignDay
555,13.522642969407637
595,18.00000122372917
635,18.00002575396768
675,18.000021952428449
715,18.00002755532499
755,18.00002161697157
2,1,12,21, 0, 7, 0.00,10.00,WinterDesignDay
8,-6.1
10,1982631.7106776622
321,13597032.046974758
2,1,12,21, 0, 7,10.00,20.00,WinterDesignDay
8,-6.1
10,1930854.097914352
321,5811391.56790166
2,1,12,21, 0, 7,20.00,30.00,WinterDesignDay
8,-6.1
10,1930854.097914352
321,11547795.34940344
2,1,12,21, 0, 7,30.00,40.00,WinterDesignDay
8,-6.1
10,1930854.097914352
321,10713512.064988107
2,1,12,21, 0, 7,40.00,50.00,WinterDesignDay
8,-6.1
10,1930854.097914352
321,9940987.42300723
2,1,12,21, 0, 7,50.00,60.00,WinterDesignDay
8,-6.1
10,1930854.097914352
321,9825973.546125181
2,1,12,21, 0, 7, 0.00,60.00,WinterDesignDay
555,13.39620836608851
595,19.974750137949088
635,19.979402158458496
675,20.00790077960767
715,19.97412730647104
755,20.010468096760133
2,1,12,21, 0, 8, 0.00,10.00,WinterDesignDay
8,-6.1
10,2854453.2908731836
321,19335494.67200497
2,1,12,21, 0, 8,10.00,20.00,WinterDesignDay
8,-6.1
10,2804330.4934847105
321,11241640.650748048
2,1,12,21, 0, 8,20.00,30.00,WinterDesignDay
8,-6.1
10,2804330.4934847105
321,15622864.397886716
2,1,12,21, 0, 8,30.00,40.00,WinterDesignDay
8,-6.1
10,2804330.4934847105
321,14258000.988196129
2,1,12,21, 0, 8,40.00,50.00,WinterDesignDay
8,-6.1
10,2804330.4934847105
321,14421243.261091156
2,1,12,21, 0, 8,50.00,60.00,WinterDesignDay
8,-6.1
10,2804330.4934847105
321,13608567.43147984
2,1,12,21, 0, 8, 0.00,60.00,WinterDesignDay
555,13.337842572348528
595,21.96882153679061
635,21.974595822328828
675,21.989618096941297
715,21.969426731587875
755,22.000871864864533
2,1,12,21, 0, 9, 0.00,10.00,WinterDesignDay
8,-6.1
10,6128142.885142957
321,11749027.939164702
2,1,12,21, 0, 9,10.00,20.00,WinterDesignDay
8,-6.1
10,6128142.885142957
321,11309743.445139973
2,1,12,21, 0, 9,20.00,30.00,WinterDesignDay
8,-6.1
10,6128142.885142957
321,11046769.080735812
2,1,12,21, 0, 9,30.00,40.00,WinterDesignDay
8,-6.1
10,6128142.885142957
321,10778261.70570965
2,1,12,21, 0, 9,40.00,50.00,WinterDesignDay
8,-6.1
10,6128142.885142957
321,10546841.771999609
2,1,12,21, 0, 9,50.00,60.00,WinterDesignDay
8,-6.1
10,6128142.885142957
321,10393056.91224253
2,1,12,21, 0, 9, 0.00,60.00,WinterDesignDay
555,13.405512963898767
595,22.00012814304746
635,22.000241150731197
675,22.000164979927918
715,22.00027777713025
755,22.00014567418369
2,1,12,21, 0,10, 0.00,10.00,WinterDesignDay
8,-6.1
10,6726414.388958272
321,9693816.469369714
2,1,12,21, 0,10,10.00,20.00,WinterDesignDay
8,-6.1
10,6726414.388958272
321,9532184.656825556
2,1,12,21, 0,10,20.00,30.00,WinterDesignDay
8,-6.1
10,6726414.388958272
321,9402229.188932907
2,1,12,21, 0,10,30.00,40.00,WinterDesignDay
8,-6.1
10,6726414.388958272
321,9286253.697237913
2,1,12,21, 0,10,40.00,50.00,WinterDesignDay
8,-6.1
10,6726414.388958272
321,9181601.842728662
2,1,12,21, 0,10,50.00,60.00,WinterDesignDay
8,-6.1
10,6726414.388958272
321,9085833.731802784
2,1,12,21, 0,10, 0.00,60.00,WinterDesignDay
555,13.565099514274595
595,22.000139127144235
635,22.000367796551445
675,22.00023103967955
715,22.000437285029539
755,22.000199331709699
2,1,12,21, 0,11, 0.00,10.00,WinterDesignDay
8,-6.1
10,6726414.388958272
321,9981582.240708035
2,1,12,21, 0,11,10.00,20.00,WinterDesignDay
8,-6.1
10,6726414.388958272
321,9249096.116514
2,1,12,21, 0,11,20.00,30.00,WinterDesignDay
8,-6.1
10,6726414.388958272
321,9705274.444987886