Program Version,EnergyPlus, Version 8.9.0-eba93e8e1b, YMD=2018.09.18 16:54
1,5,Environment Title[],Latitude[deg],Longitude[deg],Time Zone[],Elevation[m]
2,8,Day of Simulation[],Month[],Day of Month[],DST Indicator[1=yes 0=no],Hour[],StartMinute[],EndMinute[],DayType
3,5,Cumulative Day of Simulation[],Month[],Day of Month[],DST Indicator[1=yes 0=no],DayType  ! When Daily Report Variables Requested
4,2,Cumulative Days of Simulation[],Month[]  ! When Monthly Report Variables Requested
5,1,Cumulative Days of Simulation[] ! When Run Period Report Variables Requested
6,1,Calendar Year of Simulation[] ! When Annual Report Variables Requested
7,9,Environment,Site Outdoor Air Drybulb Temperature [C] !Monthly [Value,Min,Day,Hour,Minute,Max,Day,Hour,Minute]
8,1,Environment,Site Outdoor Air Wetbulb Temperature [C] !TimeStep
441,1,SP-ATTIC SYS-0 FLR-2 SCH-- UNDEFINED - HPLCMT-CORE ZN,Zone Air Temperature [C] !Hourly
442,7,SP-ATTIC SYS-0 FLR-2 SCH-- UNDEFINED - HPLCMT-CORE ZN,Zone Air Relative Humidity [%] !Daily [Value,Min,Hour,Minute,Max,Hour,Minute]
481,1,SP-DINING SYS-3 FLR-1 SCH-B HPLCMT-SOUTH ZN,Zone Air Temperature [C] !Hourly
482,7,SP-DINING SYS-3 FLR-1 SCH-B HPLCMT-SOUTH ZN,Zone Air Relative Humidity [%] !Daily [Value,Min,Hour,Minute,Max,Hour,Minute]
521,1,SP-KITCHEN SYS-3 FLR-1 SCH-B HPLCMT-NORTH ZN,Zone Air Temperature [C] !Hourly
522,7,SP-KITCHEN SYS-3 FLR-1 SCH-B HPLCMT-NORTH ZN,Zone Air Relative Humidity [%] !Daily [Value,Min,Hour,Minute,Max,Hour,Minute]
10,1,Electricity:Facility [J] !TimeStep
207,1,Gas:Facility [J] !TimeStep
End of Data Dictionary
1,VANCOUVER INTL AP ANN CLG .4% CONDNS DB=>MWB,  49.20,-123.18,  -8.00,   4.30
2,1, 7,21, 0, 1, 0.00,10.00,SummerDesignDay
8,16.352199953652215
10,4677498.99374742
207,1815581.9186524202
2,1, 7,21, 0, 1,10.00,20.00,SummerDesignDay
8,16.3252576442975
10,4661477.3647316819
207,1557435.209351983
2,1, 7,21, 0, 1,20.00,30.00,SummerDesignDay
8,16.2982938306074
10,4654839.920032442
207,2355696.9585316826
2,1, 7,21, 0, 1,30.00,40.00,SummerDesignDay
8,16.271298954341999
10,4648069.894793571
207,2836639.225126071
2,1, 7,21, 0, 1,40.00,50.00,SummerDesignDay
8,16.244276700157607
10,4641213.939067969
207,2837791.7114514426
2,1, 7,21, 0, 1,50.00,60.00,SummerDesignDay
8,16.217228272321866
10,4634471.083510445
207,2839051.8817649085
2,1, 7,21, 0, 1, 0.00,60.00,SummerDesignDay
441,25.120580929626084
481,22.944382522330199
521,23.99855174133843
2,1, 7,21, 0, 2, 0.00,10.00,SummerDesignDay
8,16.199184445315237
10,2494920.3236957227
207,1765186.2258559236
2,1, 7,21, 0, 2,10.00,20.00,SummerDesignDay
8,16.181123823551326
10,2494920.3236957227
207,883449.9909275966
2,1, 7,21, 0, 2,20.00,30.00,SummerDesignDay
8,16.163056857826836
10,2494920.3236957227
207,2629080.853201533
2,1, 7,21, 0, 2,30.00,40.00,SummerDesignDay
8,16.144971888810827
10,2494920.3236957227
207,2631568.9802865858
2,1, 7,21, 0, 2,40.00,50.00,SummerDesignDay
8,16.12688104636919
10,2494920.3236957227
207,2578726.405420779
2,1, 7,21, 0, 2,50.00,60.00,SummerDesignDay
8,16.108773026303486
10,2494920.3236957227
207,541550.4936092454
2,1, 7,21, 0, 2, 0.00,60.00,SummerDesignDay
441,24.930906940135818
481,22.285599307122696
521,24.630628982469433
2,1, 7,21, 0, 3, 0.00,10.00,SummerDesignDay
8,16.095187997840726
10,775705.9832903209
207,1657229.1877578425
2,1, 7,21, 0, 3,10.00,20.00,SummerDesignDay
8,16.08159647937563
10,775705.9832903209
207,12000.0
2,1, 7,21, 0, 3,20.00,30.00,SummerDesignDay
8,16.067992103020477
10,775705.9832903209
207,12000.0
2,1, 7,21, 0, 3,30.00,40.00,SummerDesignDay
8,16.054387489767213
10,775705.9832903209
207,12000.0
2,1, 7,21, 0, 3,40.00,50.00,SummerDesignDay
8,16.040775235496488
10,775705.9832903209
207,12000.0
2,1, 7,21, 0, 3,50.00,60.00,SummerDesignDay
8,16.027151463515208
10,775705.9832903209
207,1988920.3798096299
2,1, 7,21, 0, 3, 0.00,60.00,SummerDesignDay
441,24.711866849486709
481,21.627838897249665
521,23.94971427796681
2,1, 7,21, 0, 4, 0.00,10.00,SummerDesignDay
8,16.013526309671386
10,775705.9832903209
207,12000.0
2,1, 7,21, 0, 4,10.00,20.00,SummerDesignDay
8,15.999888590638458
10,775705.9832903209
207,12000.0
2,1, 7,21, 0, 4,20.00,30.00,SummerDesignDay
8,15.986249958378048
10,775705.9832903209
207,12000.0
2,1, 7,21, 0, 4,30.00,40.00,SummerDesignDay
8,15.972604339068287
10,775705.9832903209
207,12000.0
2,1, 7,21, 0, 4,40.00,50.00,SummerDesignDay
8,15.958946698244901
10,775705.9832903209
207,12000.0
2,1, 7,21, 0, 4,50.00,60.00,SummerDesignDay
8,15.945287702730492
10,775705.9832903209
207,1978963.1191704304
2,1, 7,21, 0, 4, 0.00,60.00,SummerDesignDay
441,24.440912272417376
481,21.23789010109142
521,23.411996967578884
2,1, 7,21, 0, 5, 0.00,10.00,SummerDesignDay
8,15.936177990809899
10,775705.9832903209
207,12000.0
2,1, 7,21, 0, 5,10.00,20.00,SummerDesignDay
8,15.92705949178547
10,775705.9832903209
207,12000.0
2,1, 7,21, 0, 5,20.00,30.00,SummerDesignDay
8,15.917943710706878
10,775705.9832903209
207,12000.0
2,1, 7,21, 0, 5,30.00,40.00,SummerDesignDay
8,15.908825155859729
10,775705.9832903209
207,12000.0
2,1, 7,21, 0, 5,40.00,50.00,SummerDesignDay
8,15.89970321878413
10,775705.9832903209
207,1543263.9435471015
2,1, 7,21, 0, 5,50.00,60.00,SummerDesignDay
8,15.89058503181825
10,775705.9832903209
207,463017.314492541
2,1, 7,21, 0, 5, 0.00,60.00,SummerDesignDay
441,24.193309148019755
481,21.01203573710796
521,23.1487988843504
2,1, 7,21, 0, 6, 0.00,10.00,SummerDesignDay
8,15.89970321878413
10,775705.9832903209
207,12000.0
2,1, 7,21, 0, 6,10.00,20.00,SummerDesignDay
8,15.908825155859729
10,775705.9832903209
207,12000.0
2,1, 7,21, 0, 6,20.00,30.00,SummerDesignDay
8,15.917943710706878
10,775705.9832903209
207,12000.0
2,1, 7,21, 0, 6,30.00,40.00,SummerDesignDay
8,15.92705949178547
10,775705.9832903209
207,12000.0
2,1, 7,21, 0, 6,40.00,50.00,SummerDesignDay
8,15.936177990809899
10,775705.9832903209
207,1994749.4021902686
2,1, 7,21, 0, 6,50.00,60.00,SummerDesignDay
8,15.945287702730492
10,775705.9832903209
207,12000.0
2,1, 7,21, 0, 6, 0.00,60.00,SummerDesignDay
441,24.35413783827704
481,21.23094945258075
521,22.9928752868269
2,1, 7,21, 0, 7, 0.00,10.00,SummerDesignDay
8,15.977153459569559
10,775705.9832903209
207,12000.0
2,1, 7,21, 0, 7,10.00,20.00,SummerDesignDay
8,16.00898303120887
10,775705.9832903209
207,12000.0
2,1, 7,21, 0, 7,20.00,30.00,SummerDesignDay
8,16.040775235496488
10,775705.9832903209
207,12000.0
2,1, 7,21, 0, 7,30.00,40.00,SummerDesignDay
8,16.072525945973774
10,775705.9832903209
207,12000.0
2,1, 7,21, 0, 7,40.00,50.00,SummerDesignDay
8,16.104245538982189
10,775705.9832903209
207,1986906.8392035866
2,1, 7,21, 0, 7,50.00,60.00,SummerDesignDay
8,16.135928228205914
10,775705.9832903209
207,12000.0
2,1, 7,21, 0, 7, 0.00,60.00,SummerDesignDay
441,24.70600663736359
481,21.677438752899979
521,22.990406176839895
2,1, 7,21, 0, 8, 0.00,10.00,SummerDesignDay
8,16.212718231329928
10,775705.9832903209
207,12000.0
2,1, 7,21, 0, 8,10.00,20.00,SummerDesignDay
8,16.289295095914626
10,775705.9832903209
207,12000.0
2,1, 7,21, 0, 8,20.00,30.00,SummerDesignDay
8,16.365658732225424
10,775705.9832903209
207,12000.0
2,1, 7,21, 0, 8,30.00,40.00,SummerDesignDay
8,16.44181049723187
10,775705.9832903209
207,50193.995093997015
2,1, 7,21, 0, 8,40.00,50.00,SummerDesignDay
8,16.517756147764346
10,775705.9832903209
207,1938301.1703933769
2,1, 7,21, 0, 8,50.00,60.00,SummerDesignDay
8,16.593486849767513
10,775705.9832903209
207,12000.0
2,1, 7,21, 0, 8, 0.00,60.00,SummerDesignDay
441,25.27903427111705
481,22.287114697027929
521,23.180353078512426
2,1, 7,21, 0, 9, 0.00,10.00,SummerDesignDay
8,16.677878063199516
10,775705.9832903209
207,12000.0
2,1, 7,21, 0, 9,10.00,20.00,SummerDesignDay
8,16.76200946235728
10,775705.9832903209
207,12000.0
2,1, 7,21, 0, 9,20.00,30.00,SummerDesignDay
8,16.845887031033866
10,775705.9832903209
207,12000.0
2,1, 7,21, 0, 9,30.00,40.00,SummerDesignDay
8,16.929502190751337
10,775705.9832903209
207,1974350.5238303536
2,1, 7,21, 0, 9,40.00,50.00,SummerDesignDay
8,17.012861351115086
10,775705.9832903209
207,37019.73113118312
2,1, 7,21, 0, 9,50.00,60.00,SummerDesignDay
8,17.09597057951627
10,775705.9832903209
207,12000.0
2,1, 7,21, 0, 9, 0.00,60.00,SummerDesignDay
441,26.04984818227561
481,23.089862214060614
521,23.56668253252406
2,1, 7,21, 0,10, 0.00,10.00,SummerDesignDay
8,17.17011313897211
10,2582680.0375821737
207,2915677.151930494
2,1, 7,21, 0,10,10.00,20.00,SummerDesignDay
8,17.24405314489198
10,2894730.0587629515
207,3080283.6144955896
2,1, 7,21, 0,10,20.00,30.00,SummerDesignDay
8,17.317792342150307
10,3135424.3146982255
207,2380235.9190378275
2,1, 7,21, 0,10,30.00,40.00,SummerDesignDay
8,17.391330750865035
10,3190476.063254045
207,2313711.6581688856
2,1, 7,21, 0,10,40.00,50.00,SummerDesignDay
8,17.464669750704549
10,3340901.034966228
207,2310055.199544608
2,1, 7,21, 0,10,50.00,60.00,SummerDesignDay
8,17.537810589481837
10,3466722.0513389578
207,2306293.305395088
2,1, 7,21, 0,10, 0.00,60.00,SummerDesignDay
441,26.876449959376158
481,23.93338837670025
521,23.992867377550394
2,1, 7,21, 0,11, 0.00,10.00,SummerDesignDay
8,17.60218312883583
10,4651227.459719043
207,3019030.6521183766
2,1, 7,21, 0,11,10.00,20.00,SummerDesignDay
8,17.666401914182499
10,4762062.756589033
207,3079074.865911821
2,1, 7,21, 0,11,20.00,30.00,SummerDesignDay
8,17.73046886665172
10,4857243.855761743
207,3079358.948191931
2,1, 7,21, 0,11,30.00,40.00,SummerDesignDay
8,17.794377337180749
10,4949780.564510985
207,3079653.027180337
2,1, 7,21, 0,11,40.00,50.00,SummerDesignDay
8,17.858140091722729
10,5038048.6904293489
207,3079946.361859249
2,1, 7,21, 0,11,50.00,60.00,SummerDesignDay
8,17.921751671476274
10,5126665.868421342
207,3080238.8196120036
2,1, 7,21, 0,11, 0.00,60.00,SummerDesignDay
441,27.628812111161463
481,23.998892129110375
521,23.998979414531364
2,1, 7,21, 0,12, 0.00,10.00,SummerDesignDay
8,17.964074041059168
10,6365811.688983243
207,12000.0
2,1, 7,21, 0,12,10.00,20.00,SummerDesignDay
8,18.00633512830953
10,6391593.76859431
207,2449481.3632650219
2,1, 7,21, 0,12,20.00,30.00,SummerDesignDay
8,18.048524057857607
10,6464900.314948969
207,2455039.125948312
2,1, 7,21, 0,12,30.00,40.00,SummerDesignDay
8,18.090647246552004
10,6535691.363521014
207,284638.65509792216
2,1, 7,21, 0,12,40.00,50.00,SummerDesignDay
8,18.132703529720616
10,6606263.350037157
207,2177470.317283567
2,1, 7,21, 0,12,50.00,60.00,SummerDesignDay
8,18.17469964536842
10,6676077.721239745
207,2454335.9780407908
2,1, 7,21, 0,12, 0.00,60.00,SummerDesignDay
441,28.23436162385062
481,23.998666280327226
521,23.998651984907086
2,1, 7,21, 0,13, 0.00,10.00,SummerDesignDay
8,18.208245339828517
10,6941889.078701245
207,1693758.2398235796
2,1, 7,21, 0,13,10.00,20.00,SummerDesignDay
8,18.241744233723979
10,7019191.294059951
207,939644.6707870619
2,1, 7,21, 0,13,20.00,30.00,SummerDesignDay
8,18.2752069112248
10,7075684.817584517
207,2629056.5014947836
2,1, 7,21, 0,13,30.00,40.00,SummerDesignDay
8,18.30862693969058
10,7129461.137632477
207,2631674.207842144
2,1, 7,21, 0,13,40.00,50.00,SummerDesignDay
8,18.342005526737105
10,7179852.531220143
207,2516562.6055258547
2,1, 7,21, 0,13,50.00,60.00,SummerDesignDay
8,18.375341817792614
10,7228899.267132722
207,539892.6726036182
2,1, 7,21, 0,13, 0.00,60.00,SummerDesignDay
441,28.664350119616019
481,23.998196908764937
521,23.99849555593553
2,1, 7,21, 0,14, 0.00,10.00,SummerDesignDay
8,18.39615811087369
10,7216571.590287448
207,2376872.847014847
2,1, 7,21, 0,14,10.00,20.00,SummerDesignDay
8,18.416957955881725
10,7272153.005330818
207,2836697.2289463549
2,1, 7,21, 0,14,20.00,30.00,SummerDesignDay
8,18.43773680274513
10,7312465.873298362
207,2837881.433379511
2,1, 7,21, 0,14,30.00,40.00,SummerDesignDay
8,18.458504433044504
10,7355610.628358042
207,2839144.339658997
2,1, 7,21, 0,14,40.00,50.00,SummerDesignDay
8,18.479250383250578
10,7401253.535392782
207,2407720.3551399905
2,1, 7,21, 0,14,50.00,60.00,SummerDesignDay
8,18.499985692685468
10,7448763.768642896
207,1564921.333113475
2,1, 7,21, 0,14, 0.00,60.00,SummerDesignDay
441,28.92075705060209
481,23.997868926967187
521,23.99829352105806
2,1, 7,21, 0,15, 0.00,10.00,SummerDesignDay
8,18.499985692685468
10,7331327.252880077
207,1716576.5723046412
2,1, 7,21, 0,15,10.00,20.00,SummerDesignDay
8,18.499985692685468
10,7359156.712670783
207,2836331.6559404407
2,1, 7,21, 0,15,20.00,30.00,SummerDesignDay
8,18.499985692685468
10,7390249.202062776
207,2837179.0083153478
2,1, 7,21, 0,15,30.00,40.00,SummerDesignDay
8,18.499985692685468
10,7419985.8696736409
207,2838421.945381261
2,1, 7,21, 0,15,40.00,50.00,SummerDesignDay
8,18.499985692685468
10,7447796.736992254
207,2839686.2859887878
2,1, 7,21, 0,15,50.00,60.00,SummerDesignDay
8,18.499985692685468
10,7473274.114824311
207,1862997.7799280033
2,1, 7,21, 0,15, 0.00,60.00,SummerDesignDay
441,28.990171174469073
481,23.998047264774699
521,23.99840705225614
2,1, 7,21, 0,16, 0.00,10.00,SummerDesignDay
8,18.475102970177127
10,7323730.179180396
207,863994.0653692044
2,1, 7,21, 0,16,10.00,20.00,SummerDesignDay
8,18.450201543271235
10,7280860.531728415
207,2451352.166283094
2,1, 7,21, 0,16,20.00,30.00,SummerDesignDay
8,18.425271777286019
10,7272311.189959161
207,2154443.2752830658
2,1, 7,21, 0,16,30.00,40.00,SummerDesignDay
8,18.40031825447926
10,7261345.765237286
207,315264.6545733233
2,1, 7,21, 0,16,40.00,50.00,SummerDesignDay
8,18.375341817792614
10,7250753.006217288
207,2451079.285380943
2,1, 7,21, 0,16,50.00,60.00,SummerDesignDay
8,18.350347174046595
10,7241265.810075512
207,2430456.8755074224
2,1, 7,21, 0,16, 0.00,60.00,SummerDesignDay
441,28.856026493988379
481,23.998638178740298
521,23.99878686866006
2,1, 7,21, 0,17, 0.00,10.00,SummerDesignDay
8,18.316978860635527
10,7220312.226996775
207,37966.609480307496
2,1, 7,21, 0,17,10.00,20.00,SummerDesignDay
8,18.2835693630182
10,7181485.332818434
207,2299523.0525951015
2,1, 7,21, 0,17,20.00,30.00,SummerDesignDay
8,18.250118050746214
10,7157284.215065183
207,12000.0
2,1, 7,21, 0,17,30.00,40.00,SummerDesignDay
8,18.216624325548968
10,7131395.307873329
207,2296639.2003861467
2,1, 7,21, 0,17,40.00,50.00,SummerDesignDay
8,18.183088861944893
10,7102902.421780112
207,12000.0
2,1, 7,21, 0,17,50.00,60.00,SummerDesignDay
8,18.149510843493635
10,7071101.886126639
207,2293541.580984071
2,1, 7,21, 0,17, 0.00,60.00,SummerDesignDay
441,28.51560863979847
481,23.999053948403306
521,23.999096966207217
2,1, 7,21, 0,18, 0.00,10.00,SummerDesignDay
8,18.10748062898272
10,7082359.965518655
207,1358000.1517837323
2,1, 7,21, 0,18,10.00,20.00,SummerDesignDay
8,18.065379091048376
10,7038868.928144521
207,953446.3151760413
2,1, 7,21, 0,18,20.00,30.00,SummerDesignDay
8,18.023216461654344
10,6992720.646449086
207,2302099.3186543288
2,1, 7,21, 0,18,30.00,40.00,SummerDesignDay
8,17.980987605947548
10,6939789.878652172
207,12000.0
2,1, 7,21, 0,18,40.00,50.00,SummerDesignDay
8,17.93869205826644
10,6884012.971763325
207,2298930.966693284
2,1, 7,21, 0,18,50.00,60.00,SummerDesignDay
8,17.89632405402092
10,6822075.678147739
207,12000.0
2,1, 7,21, 0,18, 0.00,60.00,SummerDesignDay
441,27.994339578640124
481,23.999079731302918
521,23.999131144868757
2,1, 7,21, 0,19, 0.00,10.00,SummerDesignDay
8,17.832657261722244
10,6894885.641512331
207,2435126.684343014
2,1, 7,21, 0,19,10.00,20.00,SummerDesignDay
8,17.768833985856515
10,6825102.226645334
207,2457742.4765637365
2,1, 7,21, 0,19,20.00,30.00,SummerDesignDay
8,17.704859478274899
10,6725824.924101578
207,12000.0
2,1, 7,21, 0,19,30.00,40.00,SummerDesignDay
8,17.640731707059819
10,6620487.458871647
207,2450583.3144015416
2,1, 7,21, 0,19,40.00,50.00,SummerDesignDay
8,17.576451319157326
10,6506659.876081647
207,2457035.2732333645
2,1, 7,21, 0,19,50.00,60.00,SummerDesignDay
8,17.512016904905339
10,6383025.249034952
207,12000.0
2,1, 7,21, 0,19, 0.00,60.00,SummerDesignDay
441,27.32103912382385
481,23.998721289033253
521,23.99881464166253
2,1, 7,21, 0,20, 0.00,10.00,SummerDesignDay
8,17.464669750704549
10,6448318.044390154
207,2610595.926769815
2,1, 7,21, 0,20,10.00,20.00,SummerDesignDay
8,17.417239543286124
10,6358655.326604235
207,2631805.0340618889
2,1, 7,21, 0,20,20.00,30.00,SummerDesignDay
8,17.369720602565694
10,6234952.333385817
207,2433621.9561051588
2,1, 7,21, 0,20,30.00,40.00,SummerDesignDay
8,17.32212315858905
10,6098593.068195801
207,537650.7196819508
2,1, 7,21, 0,20,40.00,50.00,SummerDesignDay
8,17.27444149556641
10,5971286.274884522
207,2304758.0946757376
2,1, 7,21, 0,20,50.00,60.00,SummerDesignDay
8,17.22667133087272
10,5851867.378430469
207,2630483.1180140369
2,1, 7,21, 0,20, 0.00,60.00,SummerDesignDay
441,26.699762132302256
481,23.99829007221075
521,23.99829609257355
2,1, 7,21, 0,21, 0.00,10.00,SummerDesignDay
8,17.187526559563478
10,5743778.358497591
207,3274601.227393597
2,1, 7,21, 0,21,10.00,20.00,SummerDesignDay
8,17.14832575016431
10,5728636.905534565
207,3366281.279566194
2,1, 7,21, 0,21,20.00,30.00,SummerDesignDay
8,17.109067882849585
10,5655859.478264727
207,3366251.2499860816
2,1, 7,21, 0,21,30.00,40.00,SummerDesignDay
8,17.06975316359479
10,5584588.340807547
207,3159656.9528280969
2,1, 7,21, 0,21,40.00,50.00,SummerDesignDay
8,17.030381184961106
10,5514126.15910827
207,2887561.5651132187
2,1, 7,21, 0,21,50.00,60.00,SummerDesignDay
8,16.990952199245954
10,5443656.98265619
207,2886541.2910954866
2,1, 7,21, 0,21, 0.00,60.00,SummerDesignDay
441,26.05817162797369
481,23.998028160788694
521,23.997921618900837
2,1, 7,21, 0,22, 0.00,10.00,SummerDesignDay
8,16.951466381705289
10,5372920.427583847
207,2885480.285093531
2,1, 7,21, 0,22,10.00,20.00,SummerDesignDay
8,16.91191764298267
10,5301493.00757049
207,2884406.100685608
2,1, 7,21, 0,22,20.00,30.00,SummerDesignDay
8,16.872316270901277
10,5229233.050580122
207,2883319.822500719
2,1, 7,21, 0,22,30.00,40.00,SummerDesignDay
8,16.832657583970926
10,5156037.912774752
207,2882221.257063883
2,1, 7,21, 0,22,40.00,50.00,SummerDesignDay
8,16.792940913271754
10,5081829.699045019
207,3106105.9404416696
2,1, 7,21, 0,22,50.00,60.00,SummerDesignDay
8,16.75316676384634
10,5006690.106913075
207,3366482.7822658384
2,1, 7,21, 0,22, 0.00,60.00,SummerDesignDay
441,25.7248532888068
481,23.997883806910413
521,23.997663616788345
2,1, 7,21, 0,23, 0.00,10.00,SummerDesignDay
8,16.722189413934204
10,4772476.482154142
207,3674883.798517345
2,1, 7,21, 0,23,10.00,20.00,SummerDesignDay
8,16.691177401191405
10,4769501.684107187
207,3712577.0616435066
2,1, 7,21, 0,23,20.00,30.00,SummerDesignDay
8,16.660129834097096
10,4764086.527942042
207,3712438.7535982725
2,1, 7,21, 0,23,30.00,40.00,SummerDesignDay
8,16.62905234664031
10,4758636.145867372
207,3712296.8374166169
2,1, 7,21, 0,23,40.00,50.00,SummerDesignDay
8,16.597934345516849
10,4753235.84039581
207,3712154.0581623495
2,1, 7,21, 0,23,50.00,60.00,SummerDesignDay
8,16.566780836645607
10,4747764.082236746
207,3712010.416896238
2,1, 7,21, 0,23, 0.00,60.00,SummerDesignDay
441,25.511583700268976
481,23.86442596990807
521,23.99789438295606
2,1, 7,21, 0,24, 0.00,10.00,SummerDesignDay
8,16.53559150074222
10,4724827.428494485
207,3711865.910362535
2,1, 7,21, 0,24,10.00,20.00,SummerDesignDay
8,16.504366423325597
10,4718278.485771228
207,3711720.5353251548
2,1, 7,21, 0,24,20.00,30.00,SummerDesignDay
8,16.473106420779854
10,4711901.6625659479
207,3510724.6763946346
2,1, 7,21, 0,24,30.00,40.00,SummerDesignDay
8,16.44181049723187
10,4705397.407694354
207,3338750.5227104865
2,1, 7,21, 0,24,40.00,50.00,SummerDesignDay
8,16.410483695355663
10,4698924.545305778
207,3338278.690269708
2,1, 7,21, 0,24,50.00,60.00,SummerDesignDay
8,16.379116168301004
10,4692463.632519141
207,3337798.130863861
2,1, 7,21, 0,24, 0.00,60.00,SummerDesignDay
441,25.3181189107932
481,23.411317322708027
521,23.99816886102742
3,1, 7,21, 0,SummerDesignDay
442,49.471698972917618,42.43873208609848,15,30,56.47847065450059, 5,50
482,60.678441073012589,54.265405707878539,17,60,68.69988611368679, 5,50
522,54.79807163851974,50.325822320430109,18,60,60.91652639975936, 7,10
4,1, 7
7,21.0245,17.5,21, 5,60,25.1,21,14,60
1,VANCOUVER INTL AP ANN HTG 99.6% CONDNS DB,  49.20,-123.18,  -8.00,   4.30
2,1,12,21, 0, 1, 0.00,10.00,WinterDesignDay
8,-6.1
10,4214134.664101123
207,42951097.930288348
2,1,12,21, 0, 1,10.00,20.00,WinterDesignDay
8,-6.1
10,4214134.664101123
207,42915408.4050817
2,1,12,21, 0, 1,20.00,30.00,WinterDesignDay
8,-6.1
10,4214134.664101123
207,42901140.18133506
2,1,12,21, 0, 1,30.00,40.00,WinterDesignDay
8,-6.1
10,4214134.664101123
207,43290344.96725269
2,1,12,21, 0, 1,40.00,50.00,WinterDesignDay
8,-6.1
10,4214134.664101123
207,43773733.377200487
2,1,12,21, 0, 1,50.00,60.00,WinterDesignDay
8,-6.1
10,4214134.664101123
207,43765483.44537303
2,1,12,21, 0, 1, 0.00,60.00,WinterDesignDay
441,15.47575220667967
481,22.000668509334316
521,21.999975351125504
2,1,12,21, 0, 2, 0.00,10.00,WinterDesignDay
8,-6.1
10,2494920.3236957227
207,44818052.73921578
2,1,12,21, 0, 2,10.00,20.00,WinterDesignDay
8,-6.1
10,2494920.3236957227
207,44959130.40927327
2,1,12,21, 0, 2,20.00,30.00,WinterDesignDay
8,-6.1
10,2494920.3236957227
207,43730428.76360286
2,1,12,21, 0, 2,30.00,40.00,WinterDesignDay
8,-6.1
10,2494920.3236957227
207,43562936.925991889
2,1,12,21, 0, 2,40.00,50.00,WinterDesignDay
8,-6.1
10,2494920.3236957227
207,45049968.367603119
2,1,12,21, 0, 2,50.00,60.00,WinterDesignDay
8,-6.1
10,2494920.3236957227
207,45068263.47812448
2,1,12,21, 0, 2, 0.00,60.00,WinterDesignDay
441,15.510468511102069
481,22.0006386127357
521,22.00026584543839
2,1,12,21, 0, 3, 0.00,10.00,WinterDesignDay
8,-6.1
10,775706.0846760395
207,26705050.901758609
2,1,12,21, 0, 3,10.00,20.00,WinterDesignDay
8,-6.1
10,775706.4810010311
207,29575444.55008603
2,1,12,21, 0, 3,20.00,30.00,WinterDesignDay
8,-6.1
10,775706.5639507107
207,33467371.666448066
2,1,12,21, 0, 3,30.00,40.00,WinterDesignDay
8,-6.1
10,775705.9832903209
207,32195696.231851985
2,1,12,21, 0, 3,40.00,50.00,WinterDesignDay
8,-6.1
10,775705.9832903209
207,32777331.16245164
2,1,12,21, 0, 3,50.00,60.00,WinterDesignDay
8,-6.1
10,775705.9832903209
207,33113100.643040014
2,1,12,21, 0, 3, 0.00,60.00,WinterDesignDay
441,15.508618581611588
481,18.24733621422607
521,18.624709361890209
2,1,12,21, 0, 4, 0.00,10.00,WinterDesignDay
8,-6.1
10,775705.9832903209
207,33168273.14426677
2,1,12,21, 0, 4,10.00,20.00,WinterDesignDay
8,-6.1
10,775705.9832903209
207,35049627.59921464
2,1,12,21, 0, 4,20.00,30.00,WinterDesignDay
8,-6.1
10,775705.9832903209
207,33573817.063430178
2,1,12,21, 0, 4,30.00,40.00,WinterDesignDay
8,-6.1
10,775705.9832903209
207,33417188.224908454
2,1,12,21, 0, 4,40.00,50.00,WinterDesignDay
8,-6.1
10,775705.9832903209
207,33474087.953433828
2,1,12,21, 0, 4,50.00,60.00,WinterDesignDay
8,-6.1
10,775705.9832903209
207,33524864.833318257
2,1,12,21, 0, 4, 0.00,60.00,WinterDesignDay
441,15.38569855615197
481,18.00001519191392
521,17.999973820355249
2,1,12,21, 0, 5, 0.00,10.00,WinterDesignDay
8,-6.1
10,775705.9832903209
207,33570637.34038658
2,1,12,21, 0, 5,10.00,20.00,WinterDesignDay
8,-6.1
10,775705.9832903209
207,35589382.17048576
2,1,12,21, 0, 5,20.00,30.00,WinterDesignDay
8,-6.1
10,775705.9832903209
207,33649414.13246172
2,1,12,21, 0, 5,30.00,40.00,WinterDesignDay
8,-6.1
10,775705.9832903209
207,33683743.68301581
2,1,12,21, 0, 5,40.00,50.00,WinterDesignDay
8,-6.1
10,775705.9832903209
207,33714350.748696748
2,1,12,21, 0, 5,50.00,60.00,WinterDesignDay
8,-6.1
10,775705.9832903209
207,33743875.3583315
2,1,12,21, 0, 5, 0.00,60.00,WinterDesignDay
441,15.182509334044762
481,18.00001341071451
521,17.99999367105235
2,1,12,21, 0, 6, 0.00,10.00,WinterDesignDay
8,-6.1
10,775705.9832903209
207,35762911.9796508
2,1,12,21, 0, 6,10.00,20.00,WinterDesignDay
8,-6.1
10,775705.9832903209
207,33800993.587850589
2,1,12,21, 0, 6,20.00,30.00,WinterDesignDay
8,-6.1
10,775705.9832903209
207,33827122.87165314
2,1,12,21, 0, 6,30.00,40.00,WinterDesignDay
8,-6.1
10,775705.9832903209
207,33853410.65614383
2,1,12,21, 0, 6,40.00,50.00,WinterDesignDay
8,-6.1
10,775705.9832903209
207,33878655.34493781
2,1,12,21, 0, 6,50.00,60.00,WinterDesignDay
8,-6.1
10,775705.9832903209
207,34170006.475167568
2,1,12,21, 0, 6, 0.00,60.00,WinterDesignDay
441,14.972447132108906
481,18.000015371156775
521,17.999999100922424
2,1,12,21, 0, 7, 0.00,10.00,WinterDesignDay
8,-6.1
10,775705.9832903209
207,35633008.14737087
2,1,12,21, 0, 7,10.00,20.00,WinterDesignDay
8,-6.1
10,775705.9832903209
207,33947227.60024731
2,1,12,21, 0, 7,20.00,30.00,WinterDesignDay
8,-6.1
10,775705.9832903209
207,33975276.79073995
2,1,12,21, 0, 7,30.00,40.00,WinterDesignDay
8,-6.1
10,775705.9832903209
207,34003460.59963275
2,1,12,21, 0, 7,40.00,50.00,WinterDesignDay
8,-6.1
10,775705.9832903209
207,34032172.629836369
2,1,12,21, 0, 7,50.00,60.00,WinterDesignDay
8,-6.1
10,775705.9832903209
207,36044702.909968648
2,1,12,21, 0, 7, 0.00,60.00,WinterDesignDay
441,14.76949283867411
481,18.000016677323626
521,18.000001681404159
2,1,12,21, 0, 8, 0.00,10.00,WinterDesignDay
8,-6.1
10,775705.9832903209
207,34089849.51010094
2,1,12,21, 0, 8,10.00,20.00,WinterDesignDay
8,-6.1
10,775705.9832903209
207,34118930.79485666
2,1,12,21, 0, 8,20.00,30.00,WinterDesignDay
8,-6.1
10,775705.9832903209
207,34149137.4294408
2,1,12,21, 0, 8,30.00,40.00,WinterDesignDay
8,-6.1
10,775705.9832903209
207,34179592.125226188
2,1,12,21, 0, 8,40.00,50.00,WinterDesignDay
8,-6.1
10,775705.9832903209
207,35865625.51525936
2,1,12,21, 0, 8,50.00,60.00,WinterDesignDay
8,-6.1
10,775705.9832903209
207,34575079.90506368
2,1,12,21, 0, 8, 0.00,60.00,WinterDesignDay
441,14.575519010007874
481,18.000018018531109
521,18.00000371365469
2,1,12,21, 0, 9, 0.00,10.00,WinterDesignDay
8,-6.1
10,780316.371752481
207,43690400.75603992
2,1,12,21, 0, 9,10.00,20.00,WinterDesignDay
8,-6.1
10,775705.9832903209
207,35453784.033869449
2,1,12,21, 0, 9,20.00,30.00,WinterDesignDay
8,-6.1
10,775705.9832903209
207,41626876.002387169
2,1,12,21, 0, 9,30.00,40.00,WinterDesignDay
8,-6.1
10,775705.9832903209
207,40260535.65542704
2,1,12,21, 0, 9,40.00,50.00,WinterDesignDay
8,-6.1
10,775705.9832903209
207,42133875.52695199
2,1,12,21, 0, 9,50.00,60.00,WinterDesignDay
8,-6.1
10,775705.9832903209
207,40124235.32401965
2,1,12,21, 0, 9, 0.00,60.00,WinterDesignDay
441,14.402357090251348
481,19.99497762191039
521,19.97279099509121
2,1,12,21, 0,10, 0.00,10.00,WinterDesignDay
8,-6.1
10,2499530.7121578829
207,52831475.2228699
2,1,12,21, 0,10,10.00,20.00,WinterDesignDay
8,-6.1
10,2494920.3236957227
207,44024229.37981955
2,1,12,21, 0,10,20.00,30.00,WinterDesignDay
8,-6.1
10,2494920.3236957227
207,49153423.5179399
2,1,12,21, 0,10,30.00,40.00,WinterDesignDay
8,-6.1
10,2494920.3236957227
207,47902049.036654558
2,1,12,21, 0,10,40.00,50.00,WinterDesignDay
8,-6.1
10,2494920.3236957227
207,47643876.43963725
2,1,12,21, 0,10,50.00,60.00,WinterDesignDay
8,-6.1
10,2494920.3236957227
207,47520706.49293715
2,1,12,21, 0,10, 0.00,60.00,WinterDesignDay
441,14.290689816143129
481,21.984304184250019
521,21.968259715500947
2,1,12,21, 0,11, 0.00,10.00,WinterDesignDay
8,-6.1
10,3354527.4938984236
207,46764960.17672157
2,1,12,21, 0,11,10.00,20.00,WinterDesignDay
8,-6.1
10,3354527.4938984236
207,46728631.23983715
2,1,12,21, 0,11,20.00,30.00,WinterDesignDay
8,-6.1
10,3354527.4938984236
207,47061613.16766175
2,1,12,21, 0,11,30.00,40.00,WinterDesignDay
8,-6.1
10,3354527.4938984236
207,46987062.6070963
2,1,12,21, 0,11,40.00,50.00,WinterDesignDay
8,-6.1
10,3354527.4938984236
207,46923713.3002448
2,1,12,21, 0,11,50.00,60.00,WinterDesignDay
8,-6.1
10,3354527.4938984236
207,46868427.87266565
2,1,12,21, 0,11, 0.00,60.00,WinterDesignDay
441,14.306574176197409
481,22.000976066435073
521,22.00042242492138
2,1,12,21, 0,12, 0.00,10.00,WinterDesignDay
8,-6.1
10,4214134.664101123
207,45054319.74783814
2,1,12,21, 0,12,10.00,20.00,WinterDesignDay
8,-6.1
10,4214134.664101123
207,43570246.63836985
2,1,12,21, 0,12,20.00,30.00,WinterDesignDay
8,-6.1
10,4214134.664101123
207,43986154.118872348
2,1,12,21, 0,12,30.00,40.00,WinterDesignDay
8,-6.1
10,4214134.664101123
207,44934582.407540839
2,1,12,21, 0,12,40.00,50.00,WinterDesignDay
8,-6.1
10,4214134.664101123
207,44884528.298984717
2,1,12,21, 0,12,50.00,60.00,WinterDesignDay
8,-6.1
10,4214134.664101123
207,42307625.442037168
2,1,12,21, 0,12, 0.00,60.00,WinterDesignDay
441,14.404982856826486
481,22.000809147385565
521,22.00027551038606
2,1,12,21, 0,13, 0.00,10.00,WinterDesignDay
8,-6.1
10,4214134.664101123
207,44188398.95741167
2,1,12,21, 0,13,10.00,20.00,WinterDesignDay
8,-6.1
10,4214134.664101123
207,44079790.24466354
2,1,12,21, 0,13,20.00,30.00,WinterDesignDay
8,-6.1
10,4214134.664101123
207,44029623.387851718
2,1,12,21, 0,13,30.00,40.00,WinterDesignDay
8,-6.1
10,4214134.664101123
207,43606167.003128487
2,1,12,21, 0,13,40.00,50.00,WinterDesignDay
8,-6.1
10,4214134.664101123
207,42376086.84486713
2,1,12,21, 0,13,50.00,60.00,WinterDesignDay
8,-6.1
10,4214134.664101123
207,43088846.59006465
2,1,12,21, 0,13, 0.00,60.00,WinterDesignDay
441,14.526761202367739
481,22.000660158675044
521,22.00016289885093
2,1,12,21, 0,14, 0.00,10.00,WinterDesignDay
8,-6.1
10,4214134.664101123
207,44270679.63236234
2,1,12,21, 0,14,10.00,20.00,WinterDesignDay
8,-6.1
10,4214134.664101123
207,44200082.164444338
2,1,12,21, 0,14,20.00,30.00,WinterDesignDay
8,-6.1
10,4214134.664101123
207,44165520.88581522
2,1,12,21, 0,14,30.00,40.00,WinterDesignDay
8,-6.1
10,4214134.664101123
207,44130992.25930802
2,1,12,21, 0,14,40.00,50.00,WinterDesignDay
8,-6.1
10,4214134.664101123
207,43984185.59242389
2,1,12,21, 0,14,50.00,60.00,WinterDesignDay
8,-6.1
10,4214134.664101123
207,43179273.46710138
2,1,12,21, 0,14, 0.00,60.00,WinterDesignDay
441,14.65218911729967
481,22.000758617900745
521,22.000154523882857
2,1,12,21, 0,15, 0.00,10.00,WinterDesignDay
8,-6.1
10,4214134.664101123
207,43725420.7616015
2,1,12,21, 0,15,10.00,20.00,WinterDesignDay
8,-6.1
10,4214134.664101123
207,43700973.08545463
2,1,12,21, 0,15,20.00,30.00,WinterDesignDay
8,-6.1
10,4214134.664101123
207,44350655.21310934
2,1,12,21, 0,15,30.00,40.00,WinterDesignDay
8,-6.1
10,4214134.664101123
207,44541575.16436013
2,1,12,21, 0,15,40.00,50.00,WinterDesignDay
8,-6.1
10,4214134.664101123
207,44515323.49842583
2,1,12,21, 0,15,50.00,60.00,WinterDesignDay
8,-6.1
10,4214134.664101123
207,44488890.46572858
2,1,12,21, 0,15, 0.00,60.00,WinterDesignDay